# vtk DataFile Version 3.0 
Unstructured Grid 
ASCII 
DATASET UNSTRUCTURED_GRID
POINTS 1233 float 
0.5 0 0  
1 0 0  
1 1 0  
0 1 0  
0 0.5 0  
0.5 0.5 0  
0.55 0 0  
0.6 0 0  
0.65 0 0  
0.7 0 0  
0.75 0 0  
0.8 0 0  
0.85 0 0  
0.9 0 0  
0.95 0 0  
0.525 0 0  
0.575 0 0  
0.625 0 0  
0.675 0 0  
0.725 0 0  
0.775 0 0  
0.825 0 0  
0.875 0 0  
0.925 0 0  
0.975 0 0  
1 0.05 0  
1 0.1 0  
1 0.15 0  
1 0.2 0  
1 0.25 0  
1 0.3 0  
1 0.35 0  
1 0.4 0  
1 0.45 0  
1 0.5 0  
1 0.55 0  
1 0.6 0  
1 0.65 0  
1 0.7 0  
1 0.75 0  
1 0.8 0  
1 0.85 0  
1 0.9 0  
1 0.95 0  
1 0.025 0  
1 0.075 0  
1 0.125 0  
1 0.175 0  
1 0.225 0  
1 0.275 0  
1 0.325 0  
1 0.375 0  
1 0.425 0  
1 0.475 0  
1 0.525 0  
1 0.575 0  
1 0.625 0  
1 0.675 0  
1 0.725 0  
1 0.775 0  
1 0.825 0  
1 0.875 0  
1 0.925 0  
1 0.975 0  
0.95 1 0  
0.9 1 0  
0.85 1 0  
0.8 1 0  
0.75 1 0  
0.7 1 0  
0.65 1 0  
0.6 1 0  
0.55 1 0  
0.5 1 0  
0.45 1 0  
0.4 1 0  
0.35 1 0  
0.3 1 0  
0.25 1 0  
0.2 1 0  
0.15 1 0  
0.1 1 0  
0.05 1 0  
0.975 1 0  
0.925 1 0  
0.875 1 0  
0.825 1 0  
0.775 1 0  
0.725 1 0  
0.675 1 0  
0.625 1 0  
0.575 1 0  
0.525 1 0  
0.475 1 0  
0.425 1 0  
0.375 1 0  
0.325 1 0  
0.275 1 0  
0.225 1 0  
0.175 1 0  
0.125 1 0  
0.075 1 0  
0.025 1 0  
0 0.95 0  
0 0.9 0  
0 0.85 0  
0 0.8 0  
0 0.75 0  
0 0.7 0  
0 0.65 0  
0 0.6 0  
0 0.55 0  
0 0.975 0  
0 0.925 0  
0 0.875 0  
0 0.825 0  
0 0.775 0  
0 0.725 0  
0 0.675 0  
0 0.625 0  
0 0.575 0  
0 0.525 0  
0.05 0.5 0  
0.1 0.5 0  
0.15 0.5 0  
0.2 0.5 0  
0.25 0.5 0  
0.3 0.5 0  
0.35 0.5 0  
0.4 0.5 0  
0.45 0.5 0  
0.025 0.5 0  
0.075 0.5 0  
0.125 0.5 0  
0.175 0.5 0  
0.225 0.5 0  
0.275 0.5 0  
0.325 0.5 0  
0.375 0.5 0  
0.425 0.5 0  
0.475 0.5 0  
0.5 0.45 0  
0.5 0.4 0  
0.5 0.35 0  
0.5 0.3 0  
0.5 0.25 0  
0.5 0.2 0  
0.5 0.15 0  
0.5 0.1 0  
0.5 0.05 0  
0.5 0.475 0  
0.5 0.425 0  
0.5 0.375 0  
0.5 0.325 0  
0.5 0.275 0  
0.5 0.225 0  
0.5 0.175 0  
0.5 0.125 0  
0.5 0.075 0  
0.5 0.025 0  
0.70750093 0.6956974 0  
0.74098915 0.3808518 0  
0.2772981 0.7541676 0  
0.48631203 0.7755567 0  
0.7920695 0.18098614 0  
0.81983465 0.5514387 0  
0.83527184 0.82780945 0  
0.6732796 0.5603538 0  
0.6502225 0.23464122 0  
0.4031742 0.66632706 0  
0.6337259 0.85083497 0  
0.14747472 0.64770067 0  
0.14491168 0.8591226 0  
0.38469014 0.8466242 0  
0.8481892 0.69832444 0  
0.542183 0.6361351 0  
0.86261964 0.31033546 0  
0.63433784 0.4131721 0  
0.88163674 0.44013447 0  
0.6506765 0.12701236 0  
0.28058472 0.62744004 0  
0.266377 0.890746 0  
0.52052236 0.8884407 0  
0.8853813 0.10415383 0  
0.5961039 0.74288064 0  
0.7321474 0.10657057 0  
0.7534531 0.9109957 0  
0.7306364 0.49010426 0  
0.10593562 0.7633901 0  
0.6085483 0.33960903 0  
0.41244462 0.7504563 0  
0.8924015 0.9024257 0  
0.75284874 0.2653967 0  
0.90782446 0.5956855 0  
0.73421985 0.6148459 0  
0.9035777 0.22598699 0  
0.904664 0.7677448 0  
0.7560002 0.80167246 0  
0.6235837 0.6497568 0  
0.4761963 0.600626 0  
0.09405889 0.90726966 0  
0.46036786 0.90225554 0  
0.57321554 0.5612291 0  
0.9125262 0.5008957 0  
0.18869828 0.73517185 0  
0.5819982 0.20640646 0  
0.3580837 0.58597964 0  
0.4673418 0.71096164 0  
0.80884737 0.91465074 0  
0.19329327 0.5906351 0  
0.7073498 0.19763404 0  
0.6881333 0.3114111 0  
0.8100273 0.08057853 0  
0.92167765 0.37289417 0  
0.78898376 0.7223936 0  
0.18423504 0.9137875 0  
0.5955052 0.92697006 0  
0.09174431 0.68104494 0  
0.077176034 0.8196744 0  
0.33534795 0.702193 0  
0.22631912 0.808785 0  
0.33873102 0.92416656 0  
0.5554851 0.8122672 0  
0.7875255 0.44344616 0  
0.28962484 0.8032018 0  
0.8231329 0.64439607 0  
0.6710661 0.771233 0  
0.4472337 0.83958507 0  
0.5980063 0.09034859 0  
0.9051648 0.67686373 0  
0.8193783 0.37089363 0  
0.67413706 0.9246006 0  
0.6844245 0.07681677 0  
0.21334338 0.6756072 0  
0.9346366 0.29424834 0  
0.92509955 0.83952224 0  
0.5786958 0.39345044 0  
0.83912766 0.26552165 0  
0.68860036 0.40520525 0  
0.6663302 0.5010004 0  
0.542882 0.7265066 0  
0.93767685 0.158872 0  
0.93177444 0.073215485 0  
0.74769515 0.5547941 0  
0.66424096 0.16931927 0  
0.81398284 0.7749214 0  
0.85481274 0.49390808 0  
0.93743306 0.41747978 0  
0.28681663 0.5606412 0  
0.7629547 0.66944677 0  
0.5542654 0.15739225 0  
0.6945487 0.8317527 0  
0.32680076 0.76431686 0  
0.4026466 0.5715736 0  
0.8783856 0.16675018 0  
0.16518609 0.7910477 0  
0.147853 0.5463479 0  
0.49777296 0.92527354 0  
0.37162519 0.94965 0  
0.27740297 0.9445658 0  
0.8031426 0.31872594 0  
0.78311247 0.49081337 0  
0.7842517 0.1387968 0  
0.8779965 0.043310434 0  
0.6565816 0.36589628 0  
0.9404215 0.9419655 0  
0.766742 0.94874734 0  
0.64274204 0.7066805 0  
0.56707066 0.67341655 0  
0.7851117 0.8396477 0  
0.6108795 0.58173275 0  
0.7602141 0.053777907 0  
0.50265235 0.82990026 0  
0.67994595 0.6517148 0  
0.050044518 0.7343793 0  
0.14409903 0.9549447 0  
0.9394896 0.74489534 0  
0.9551314 0.54973686 0  
0.8443352 0.94729584 0  
0.6922829 0.116647094 0  
0.21273914 0.86883974 0  
0.52278024 0.5398059 0  
0.61224324 0.79180586 0  
0.53860146 0.95340276 0  
0.85792744 0.54979974 0  
0.4517896 0.75909996 0  
0.9541052 0.64298636 0  
0.4959701 0.6462069 0  
0.57732165 0.86934584 0  
0.13438222 0.70896363 0  
0.38239995 0.70804083 0  
0.27553168 0.6913406 0  
0.04763526 0.64252275 0  
0.0443123 0.85993123 0  
0.64345574 0.04124834 0  
0.87813115 0.85624826 0  
0.3436422 0.64307153 0  
0.5990114 0.51781875 0  
0.87626976 0.63548005 0  
0.79674315 0.8121981 0  
0.70189476 0.5248012 0  
0.41175634 0.801514 0  
0.5565765 0.31738317 0  
0.6906944 0.6090525 0  
0.31750926 0.8643521 0  
0.049578637 0.54816455 0  
0.048423294 0.9519149 0  
0.64600044 0.28648314 0  
0.7028146 0.24820054 0  
0.7515703 0.23299614 0  
0.06045307 0.7782968 0  
0.7482215 0.32072487 0  
0.93889374 0.88784486 0  
0.95960283 0.25405845 0  
0.8354813 0.1344427 0  
0.9581464 0.3397404 0  
0.8718733 0.37224746 0  
0.87957907 0.27221736 0  
0.222779 0.95585036 0  
0.5389708 0.4449429 0  
0.89079946 0.7162956 0  
0.14090258 0.9102957 0  
0.93933636 0.1090361 0  
0.5672007 0.7678667 0  
0.8009522 0.5835888 0  
0.7306301 0.7482025 0  
0.8054748 0.6834026 0  
0.3302315 0.54503405 0  
0.48272002 0.86530185 0  
0.09488948 0.63985497 0  
0.961578 0.4581426 0  
0.9525706 0.79959327 0  
0.42736888 0.6124512 0  
0.73493004 0.42279407 0  
0.67188543 0.8725097 0  
0.7060864 0.35773262 0  
0.23151435 0.7628894 0  
0.540292 0.22876774 0  
0.8512693 0.2083983 0  
0.5948522 0.2535501 0  
0.2276516 0.54600304 0  
0.41344976 0.7085565 0  
0.8556544 0.79130304 0  
0.70995367 0.95498025 0  
0.8538161 0.6028676 0  
0.33950177 0.8124618 0  
0.52509785 0.59386957 0  
0.1469042 0.5934557 0  
0.6289334 0.9465527 0  
0.8391179 0.8865024 0  
0.7174704 0.03803972 0  
0.22986238 0.62699443 0  
0.5612275 0.49553597 0  
0.4234322 0.874856 0  
0.08952622 0.8619968 0  
0.43466586 0.94189495 0  
0.45267665 0.5475247 0  
0.09901066 0.5470382 0  
0.5819537 0.62240237 0  
0.37762377 0.5374462 0  
0.83463174 0.41036054 0  
0.4456038 0.7890869 0  
0.9223516 0.45528558 0  
0.26270926 0.8480691 0  
0.2545995 0.78208786 0  
0.6303897 0.47640538 0  
0.77783334 0.8874281 0  
0.8040185 0.9672385 0  
0.51894397 0.6885416 0  
0.7483955 0.19018087 0  
0.31672344 0.604248 0  
0.530513 0.19706918 0  
0.60762465 0.13955858 0  
0.7253025 0.28700402 0  
0.2372208 0.7246361 0  
0.9099207 0.32825893 0  
0.19392465 0.5456197 0  
0.17298053 0.6933088 0  
0.8133572 0.45956984 0  
0.18954924 0.95625526 0  
0.36031175 0.88638216 0  
0.44810435 0.6575026 0  
0.8312855 0.7370995 0  
0.7021166 0.15704669 0  
0.09669245 0.953576 0  
0.78461766 0.41234827 0  
0.9510459 0.38075215 0  
0.55933595 0.5910324 0  
0.30383396 0.7275454 0  
0.50866145 0.74735224 0  
0.95747304 0.5021497 0  
0.55007577 0.09718909 0  
0.9093979 0.637551 0  
0.31707567 0.96106255 0  
0.2338757 0.91591716 0  
0.047317546 0.6892354 0  
0.043665346 0.82780904 0  
0.18880537 0.8307187 0  
0.54885674 0.047405235 0  
0.7005862 0.5763341 0  
0.5789813 0.95703626 0  
0.09517383 0.7221839 0  
0.66294515 0.44005072 0  
0.6141922 0.88899434 0  
0.68939126 0.7318021 0  
0.6754723 0.19976014 0  
0.6527901 0.8114979 0  
0.5348323 0.4795268 0  
0.7719615 0.09617614 0  
0.30879366 0.66557086 0  
0.5892735 0.44420958 0  
0.6240219 0.1865796 0  
0.19841255 0.6340649 0  
0.77987903 0.36143658 0  
0.8434378 0.05920409 0  
0.8967096 0.94827163 0  
0.5386745 0.3690323 0  
0.24292125 0.5891698 0  
0.628585 0.7539438 0  
0.6182276 0.37872645 0  
0.90365773 0.39877054 0  
0.71350557 0.788653 0  
0.5583294 0.9080622 0  
0.7804297 0.6269791 0  
0.83950853 0.34518284 0  
0.2980342 0.90496033 0  
0.95467174 0.84311134 0  
0.6022288 0.29848412 0  
0.12343744 0.6807311 0  
0.383109 0.6268349 0  
0.66064245 0.39415124 0  
0.64382696 0.0838445 0  
0.048727408 0.5960617 0  
0.04665361 0.9045338 0  
0.9502323 0.6900119 0  
0.14825124 0.7494789 0  
0.53912187 0.85005844 0  
0.51926005 0.7954632 0  
0.760689 0.46154624 0  
0.95745635 0.04054307 0  
0.6875636 0.03855344 0  
0.7473608 0.7090172 0  
0.95262927 0.21010745 0  
0.96151114 0.29702216 0  
0.6658759 0.95601016 0  
0.5944167 0.83056635 0  
0.9074282 0.54908496 0  
0.860118 0.90990734 0  
0.5974079 0.044619147 0  
0.5025887 0.97291684 0  
0.47258914 0.9614385 0  
0.6494315 0.5995786 0  
0.54751164 0.2749749 0  
0.24889097 0.6544037 0  
0.7459319 0.85151744 0  
0.83510023 0.29814306 0  
0.46906942 0.807535 0  
0.91628563 0.038044896 0  
0.90481335 0.18469094 0  
0.71096814 0.9042457 0  
0.9601019 0.06934663 0  
0.36643213 0.7432882 0  
0.7237735 0.066883706 0  
0.6497992 0.32710215 0  
0.86372393 0.6623046 0  
0.18284051 0.8822157 0  
0.69776076 0.464509 0  
0.90365434 0.80872697 0  
0.7219786 0.6578362 0  
0.3468349 0.9715031 0  
0.40929115 0.5265238 0  
0.9635657 0.4266556 0  
0.63748753 0.54031086 0  
0.7889096 0.046223544 0  
0.58641016 0.7130934 0  
0.12256787 0.80728704 0  
0.20414913 0.7737924 0  
0.67758584 0.28247443 0  
0.3666511 0.6813699 0  
0.97551537 0.9572611 0  
0.8243451 0.17512041 0  
[...]
POINT_DATA 1233 
SCALARS fi float 
LOOKUP_TABLE default 
0.4999999999998109 
0.4999999999999386 
1.076169862965068e-13 
-5.952188821687403e-14 
-6.056610470030767e-14 
9.403505536435834e-13 
1.000000000000193 
0.999999999999912 
1.0000000000000229 
0.9999999999999183 
1.0000000000000082 
0.999999999999648 
1.0000000000000633 
0.9999999999998693 
1.000000000000067 
0.4787084035367628 
1.1246001174175078 
0.5885533904485476 
0.9764264569885356 
1.0307128475242773 
0.9210250735436025 
0.6980067645382056 
0.6762185164181901 
1.1586381412950042 
0.07136748580142004 
4.988927098342392e-13 
-2.0459842192705714e-14 
3.4638543340038047e-14 
5.605669415250546e-13 
-1.4938408853394272e-15 
5.208271954407971e-13 
3.0969756225358567e-12 
4.8465015231402585e-12 
5.19327958225009e-13 
5.443642463775829e-13 
1.0345807688772892e-13 
1.0511732722657395e-12 
4.990342730462249e-14 
1.4705420525586357e-12 
1.2933876152056098e-13 
3.1346455281058556e-12 
4.163799237167504e-12 
6.808932635462099e-13 
5.268191872789358e-14 
0.6238523856293631 
0.20103375196138598 
0.2482342254201357 
0.442702773493519 
0.4378390751916159 
0.5495854991859879 
2.0994635379084303 
2.340406492958113 
1.8090677660268353 
0.519480465798828 
0.6864334374146716 
1.0990025539190884 
0.7361379804931605 
2.544652795168376 
1.6903239109641757 
3.4423166058338643 
-0.014602712258700377 
-0.042623212442697365 
0.19862596638529603 
0.12766239285203196 
4.4741479823712426e-14 
4.5407086365587913e-13 
-3.447618079138084e-13 
-2.0221083259419673e-12 
-3.2305302000167654e-12 
8.050778434292334e-12 
1.2889749893541658e-11 
7.554068033969199e-13 
-2.04209673784551e-13 
4.078832238648053e-12 
4.81299520611342e-12 
4.4504571408117054e-13 
-2.295141375498048e-13 
1.5030131897105648e-13 
-3.333512448894831e-14 
-6.144413654668876e-14 
-7.734305164721861e-14 
-7.224768205911747e-15 
2.1281658040817194e-14 
-0.14376131210083187 
0.30295455431894996 
0.010237917557016274 
-0.8659217181041984 
-1.4866039822312411 
2.2725962031575735 
9.366415404553615 
1.5782382759145883 
0.9207169106063329 
2.0499675818515346 
4.388551708498107 
-0.04605576460201534 
-0.5460117065062297 
-0.30606702557971704 
0.10555546370663575 
-0.07076848336432263 
0.19338883011852298 
0.06504511918488752 
-0.055117588800108905 
-0.07439712788377727 
-4.6616729670827905e-14 
1.0080218291962235e-13 
8.303996572131796e-14 
1.3039136554785692e-12 
-4.160602980469906e-14 
4.2107142797770173e-13 
6.829922149391281e-14 
2.3278691489045973e-13 
2.946708958245431e-14 
-0.0827833649915085 
0.053571162006471156 
0.09851590741182237 
0.7980365649696605 
0.7227575654199516 
0.134406210385503 
0.41316821950195737 
0.20230521660126047 
0.26574038224601715 
0.07256703191706708 
9.818180444035991e-15 
2.4168440540114003e-13 
-4.2459034718385934e-14 
-3.237450877838795e-14 
1.7219850213536367e-14 
7.075769630066621e-14 
2.391309995112616e-13 
9.807846894095066e-14 
1.0250485207990675e-12 
0.07356044304763015 
0.13632185682615344 
0.15574948569946068 
0.04425727463027424 
-0.02888251656964874 
0.12906026661136252 
0.07932942233266126 
0.13217715298104984 
0.4737906526771224 
0.48340011660225174 
3.0788584707962617e-13 
3.9446776952160877e-13 
7.160105902070813e-14 
8.422288610271545e-13 
2.7504631718206276e-13 
6.767576617024104e-13 
3.8474164649610173e-13 
3.7957432124163275e-12 
1.2707708543590338e-12 
1.0188781903203457 
0.5595005273400911 
0.22008936577975824 
0.14701336027565548 
0.7660657974374072 
0.43707472248010104 
1.0954088588196478 
2.626469508710288 
2.6065521492111 
1.3730904435607871 
0.5974658956273847 
0.807817327505808 
0.5815304916479279 
0.4210015936075666 
0.8852277256016122 
0.5509065550479344 
2.7884450138960197 
0.6996763975761484 
0.5988900421332836 
0.5858948407310854 
0.7383894622218399 
0.296354284269757 
0.12065062345974459 
-0.39058259904086 
1.085866198836411 
0.6141719265032815 
0.15296761547485585 
0.7501048023140633 
0.7612312064975388 
0.8948275158420788 
0.35924757813136327 
0.029005523460648934 
1.7276439245398478 
1.226097437396449 
0.5809760058064701 
0.9957163646320766 
5.3230588714861575 
0.7235338042479377 
0.1621316612281046 
0.5862307378336292 
0.8862039163566318 
0.34061554808923394 
0.8750259297561761 
0.5240464292375662 
0.6158832342262255 
-0.16966153553081906 
1.565513088748685 
1.035496399921072 
0.7023787850877758 
0.4985240206682002 
0.15547999957383793 
-0.6492096396563283 
0.8278194122859073 
0.3003914227891371 
0.4311764917582153 
0.39790679828771036 
0.22073621434527332 
0.7228645968158289 
1.2544548017924935 
0.012646428879585243 
0.8597125288653829 
0.8047996820512016 
0.8016654907204384 
-0.3128718215063524 
0.49421622920503777 
-0.09998425272162746 
2.1377915931278477 
0.14868203046907635 
0.848184633728627 
0.6161252226992614 
0.5801568653952108 
-0.27085836448736755 
1.2392739464895421 
0.6498531918962479 
0.8199835894748019 
0.6332242060249893 
0.6666515815772647 
0.8712099751611597 
-0.28141718708715324 
0.8631297913999574 
0.5868904891271987 
0.6131532674035596 
0.7750252652037086 
0.23376380175790548 
-0.058519856713060224 
0.6284407613799291 
0.5047105242012673 
0.5988040891033622 
0.7661330271642414 
0.7732474913176302 
0.586911722468486 
0.6543442426058366 
0.5245615332180215 
0.6476568698176517 
0.44201333765947015 
0.8688128281911967 
0.5213791771435571 
0.19932223561772452 
0.1998553619949524 
0.7376172492853003 
1.8153894793819743 
1.233721749637192 
0.6789406656891129 
0.5184724294864956 
0.653587513956518 
0.7281325396412538 
0.2549831925838363 
-0.6319373625709425 
0.7356147706408989 
0.1567114066252155 
0.8692785470301806 
0.6769164588386208 
0.9411855995195122 
0.7049090107005641 
0.6129346214214713 
0.497013193765974 
-1.775283842414376 
0.5638968734162534 
0.6166179855468893 
0.46399174148270367 
0.657516690724615 
0.8188319769408312 
-0.1611180583868391 
0.5909909609338392 
0.6464259719941349 
0.007982360716652169 
3.679098576217001 
1.1899085420464095 
0.05373991717502425 
0.6813789327868992 
0.4571196040678475 
0.7274803801897077 
0.23736931629905744 
0.6969525182533076 
0.7089492553467348 
0.9958766523768929 
1.9653019930297304 
0.5907917786913045 
-0.017184028339400748 
0.46887915835497546 
0.6971752769529151 
0.6302393851933294 
0.4785834239467207 
0.2811634784894105 
0.659758730183579 
1.3947701605520624 
0.5396769194881138 
0.7955164301430794 
0.6990357704316915 
-0.18236603489505993 
0.6557110386962816 
0.2975549470905031 
0.8321619376294362 
0.5805876607180249 
0.17951299659412057 
0.40798861539164577 
-0.21605256094956324 
0.5927792338250588 
0.6942194398030497 
0.9401848371463771 
0.9160313177931718 
0.7999120197222913 
-0.05987488042857812 
0.8251137744111429 
0.8030319095881369 
2.020323102915541 
0.43955156313302657 
0.5972577672629836 
0.11158255683835043 
1.0730320390780446 
1.4011209543628194 
-0.1722273783726125 
0.27879381362787364 
0.6069852093320158 
0.5121000866935538 
0.5963654096626873 
1.1645441555925995 
0.19841209430753562 
-0.12349754600840364 
0.16331134487034177 
1.202114027713066 
2.7972831888164995 
0.46681422546577755 
0.6848965501036663 
2.5147890691185384 
0.8300330686791012 
0.7070098268609076 
0.44849465116774107 
0.8514004196248379 
0.2935776560577681 
0.04657404507050886 
0.38231738877983806 
1.3816495263007236 
5.910102836576632 
0.7834228964657786 
0.715078802443754 
0.6030275524598361 
0.20145066266654976 
6.327004477449104 
-0.45965852084976766 
0.9725026273987395 
0.2533532788572728 
0.5260049073899246 
-0.47740232673250055 
0.47371895982836554 
0.7533600175156011 
0.5159810419551515 
0.07364383245110995 
0.6974070684740747 
0.08401806355707123 
0.7035630863113472 
0.06063363989027703 
0.7533617757652364 
0.39878296561107424 
0.7309446598083944 
0.7112616004995428 
3.1651740093079983 
-1.0312089330372878 
0.7225065940527533 
0.8828030232983898 
0.23600229780620866 
0.552461236419732 
0.7607029379620182 
0.8274397927095742 
0.698681926029763 
0.1113982597377289 
0.038327957058441414 
0.38936993359756367 
0.6761887914047977 
0.029436141220199386 
0.08009800668097389 
0.6750182434722477 
0.4763441602132202 
0.5691121182154426 
-0.07157222006772818 
0.7695208588812493 
1.0593209706730515 
0.6836830590022446 
0.6206851656962065 
0.5098927243311187 
0.8640370896348185 
2.3178932414707454 
1.0011606182776942 
0.1826192908303534 
0.0658690358681495 
0.2572388222218439 
0.8711041756478376 
0.7829404500258456 
1.2868383649196358 
0.5708357110562179 
0.818044448421077 
0.35484828227917325 
0.8267176506594374 
0.857859349341263 
0.49829750242927207 
0.6028115022219703 
0.6266220399719545 
0.5773051193862073 
0.8743660642540461 
0.2935883023589402 
0.6665141148196757 
0.5493168347354448 
0.35096254421587547 
0.6880865826240863 
0.7423267266918754 
0.5859605724216108 
0.752228476830367 
0.07546838016640992 
0.47354113317672025 
0.5599753206208624 
0.3058263684043324 
1.5639029520077805 
1.197774630094904 
0.5900018618735821 
0.17751087876269583 
0.07910844166081446 
1.6947817327201955 
0.4448461677958035 
0.32563983013881587 
0.39868131505216137 
0.6979619806541452 
0.8611395580225394 
0.15795688382654327 
0.14117058629065396 
2.06012746758382 
0.46913284548959283 
0.09153645832083528 
0.06065041911235957 
0.6735175780833015 
0.3949691615002994 
0.971862704308402 
0.5634961643541913 
0.5094734030279023 
0.23354703064965743 
3.6850485014717385 
0.748056686964776 
0.6049386684621902 
-0.19572550725658783 
0.5723551765487003 
3.298302002524089 
1.4245109365107944 
0.665215799707411 
0.47921251703983503 
0.2905123038278215 
1.0112057270349055 
0.5953695700948555 
0.35737932610900136 
0.8472674280332726 
0.5646792710832649 
3.3090629439075046 
0.7832803995590022 
0.8024187067699105 
0.9544104330472019 
0.694048090695112 
0.7059759042378385 
0.3717823946506622 
0.8014932859773757 
1.4723092342554824 
0.6093878206073848 
-0.4318411274576174 
0.7248779481314652 
2.3561183167188218 
0.7149807839758613 
0.8186827240503893 
0.47288301964802854 
0.7790252544512847 
0.5839609811283276 
0.7233590644914261 
0.5884385683644876 
0.050234347715323265 
0.7348213282475694 
0.7899355131593452 
0.39029901755537955 
2.0494993692707104 
0.6321854042761833 
0.9240281524589542 
2.658044086238348 
0.5651877879049274 
0.5935983084726247 
0.36236400107582994 
0.865169101402575 
0.1530814948849146 
0.20986179694770873 
0.7399513081106952 
0.4980830069142414 
1.4449202451093668 
0.6298167794210795 
0.5476122379601994 
0.556348131746449 
0.7988430015642319 
0.8680729503393795 
0.5295863256323949 
0.9916613906003462 
0.7417875329749796 
0.4317808016023533 
0.8056368284915315 
0.6824820850241227 
0.7021941308530123 
0.6821471863133285 
-0.06086487518394016 
0.03252569400848922 
0.04246141450326275 
1.1421487967838322 
0.9427994707630298 
0.5851532300298796 
1.2843265230097298 
-0.816574545498252 
-1.629444096920982 
-0.19126740066805142 
0.6008038660264404 
0.6748074887030516 
0.6276933303299366 
0.6150553408576669 
0.272187974702939 
0.47461825174221367 
0.5975027742538315 
0.4816224474320659 
0.5453525351141465 
0.5382940481021149 
0.55478495512457 
0.5581368834906859 
0.8135835206045686 
0.8296039700347254 
0.8441715201691269 
0.7191284538769924 
0.12391935168440771 
0.15283529145799962 
0.12223022306622452 
0.1656821525946229 
2.660315328662289 
1.241690099892553 
0.020148838879779373 
0.7131369126219593 
0.4542527168025065 
0.7302288331926216 
0.1090457392074719 
0.02383312442637572 
0.3849601573605815 
0.09021275343296528 
-0.12716520373972204 
-0.06371944564400235 
-0.06316097920393587 
2.604774963454836 
5.279927076616966 
5.403740773304054 
2.4574514659376154 
0.37074618294056927 
0.02264262072859707 
0.45347019692726254 
-0.25006902186477376 
0.7126421531640131 
0.6722543981044141 
0.6693277203793 
0.6546385106829791 
0.6612258370164535 
0.6019778904224579 
0.5338971600829664 
0.5977906521661258 
0.19725143070024265 
0.3554754113043012 
0.49543712727266764 
0.7947092697715603 
0.4819412181593062 
0.7245866791950398 
0.5805142712207494 
0.8207789137873327 
1.339669868514245 
0.8919538431065395 
0.9692999664759152 
1.3091536355040951 
0.08166348041697102 
0.09256085608177664 
0.8180000313027863 
0.7538664525596587 
0.8240267488480941 
0.8047366574285968 
0.4905060046516092 
0.9828409309918105 
0.9184494433011198 
0.718913126545725 
0.6581733530422674 
0.6106536212747271 
0.6018890362422646 
0.5828757253076534 
0.9862396850051655 
1.5056917679790753 
1.3715173460327938 
0.7158662301000558 
1.4753018127167983 
1.2182048239903882 
1.7448683156268276 
0.46342797937379027 
0.6610361024528824 
0.7672660849792898 
-0.3709294065330631 
-0.016968905270749367 
0.20599814432625238 
0.2542478274271784 
0.03971781215401068 
0.09209473465885598 
0.062462765257728065 
0.8676958005214672 
0.9034233138475689 
0.9738276055869453 
0.7560567191517349 
0.9238188238621622 
0.740071243142546 
0.6372960226287588 
0.16243866187207753 
0.26458464850782454 
0.258913728762659 
0.26158766989369303 
1.467127778442704 
2.4145972588047195 
2.4612871161818797 
0.6421735452763315 
0.6274195995559825 
0.6317553495398012 
0.5522786544830677 
0.642792543970027 
0.047694615932686216 
0.5183564574808718 
0.5544848054063866 
0.5303737098806655 
0.5388517989793372 
0.4887582231633465 
0.5531702276707757 
0.49937004576306215 
0.6515163763309533 
1.1367319750072158 
0.2698603762933447 
0.24723378847367916 
0.1576032199932421 
-0.07159030218087138 
0.0769683980245713 
0.5557574698565196 
0.6399830108454726 
0.6196574331260559 
0.21736102491984313 
0.29337310941013456 
0.28500146453667496 
0.600512857635857 
0.6841618847003607 
1.046618736670372 
1.3414716989407802 
1.9442903501238302 
-0.04827622383063419 
-0.3002652192802184 
0.49784620450159384 
0.3249960552375014 
0.34276591672203205 
0.34209584660610054 
0.3285312908537788 
0.24991242211424183 
0.26513476015012655 
-0.04350731158203502 
-0.07366285923475237 
2.4043169981101826 
0.8396419620912391 
1.1158442821278585 
0.8590604754233111 
0.40497351805245996 
0.6447133263976056 
0.6030153262411229 
2.3916513215077817 
0.6161863126748515 
1.0793845269360667 
0.11242867769408137 
0.6177617455530985 
0.5628311057870065 
0.584393068138004 
0.08006229919778439 
-0.010316270355973699 
-0.0794324748208424 
1.7263247132883457 
2.246347576594515 
2.0842754344186027 
-0.06350278941738348 
-0.029774210398103892 
0.07475945169308842 
0.7003097138585185 
0.6570738113547214 
0.5712188871135904 
0.6571049132785154 
0.07372393172019934 
-0.320325300371004 
0.3059053403827175 
0.7541280675757929 
0.43649558406769584 
0.6815555323734998 
0.6103885885058691 
0.8715177641522038 
0.08165584259972078 
0.02041570968143833 
0.032074604946042765 
0.17670901103905415 
0.47606825026965577 
0.5477659895057839 
0.5109495331905233 
0.6156474632108022 
0.6864842969364718 
0.6627693553223931 
0.6793312893075608 
0.40634239753594087 
0.5204876563631263 
2.0861390163641556 
0.30462310530885983 
0.8290414567555732 
0.7473019990949205 
0.7463816060715095 
0.6441705721851401 
0.539487973327023 
0.6313809945599175 
0.6284439837648637 
0.9192570797646016 
0.47520689226611423 
0.7399976586294066 
0.052852042536751305 
-0.0793492633557489 
0.12522350075665442 
-0.1313113825114707 
0.22192579746694774 
0.8039788604681284 
0.6936625128546708 
0.6020391162315025 
0.1298028458181232 
1.9994155224677055 
1.568196286785397 
0.19372680681204996 
0.5311767048814414 
0.5332715112445989 
1.121202318115424 
1.0342931815263272 
0.9263920561826648 
0.5954799765657685 
0.08787167446365685 
0.7207501845463479 
0.9422539187241681 
0.8199921226563547 
0.823172099763694 
0.8351742924508211 
0.048503110383301476 
0.42884406623551935 
-0.3459531450735995 
-0.10069500605965305 
-0.014231308829328836 
0.3822577228287015 
0.5981438822312799 
0.526589441725828 
0.36828279215074544 
0.30164906904241906 
0.7860792831365325 
0.49215372557267034 
0.8092178246709482 
0.6559917284593103 
0.6523185926455262 
0.5349414871581571 
0.37836893342172145 
0.29385505588583655 
0.6927550589157129 
0.675950383946222 
0.6128647899521797 
0.7461048892774408 
0.6483431046105221 
0.6819286577438192 
0.689937173504427 
0.6720266538222391 
0.4735089392623514 
0.4328726041086256 
0.3151379659054161 
2.3901079557464966 
0.02717367591498202 
1.4824974382665017 
0.6587672798649219 
0.5973460201590158 
0.602811172538529 
0.20550206613126382 
0.6451450551271205 
0.5639111738702645 
0.9198594361506722 
0.7941079166350753 
0.9070469157084078 
0.4545032319052404 
0.530527758485634 
0.6061617626922049 
0.5042299352806762 
0.5011764031296073 
0.4598395381173444 
0.4881267107806721 
0.2641442722672901 
0.11216225640919691 
0.08248907658936212 
0.21328273940217143 
0.4880434807796325 
0.6969984067962869 
0.7230203715596222 
0.7454430893850251 
0.5457747093684472 
0.8588245896470995 
0.14036325415478204 
0.6316330624517457 
0.6532197417523717 
0.7968703042879145 
0.3107721587111537 
3.8328779983705292 
0.7964330220472582 
0.9222730995107356 
0.8985580487188847 
0.919517795084386 
0.7532394860212678 
0.7061941946059171 
0.7107995585279361 
2.209436845194173 
0.6965752280323101 
0.7534045078848091 
0.764770140722559 
0.6351529928266398 
0.6876715351792384 
0.6999351334365672 
0.7268518707198329 
0.6508023907836176 
0.29446377276034785 
-0.29715632851102086 
-0.4840159036273303 
2.1346007805999836 
2.117347486015438 
0.31373376795498337 
0.4357083388458497 
0.3246222761122324 
0.42050175140509743 
0.6922653236332578 
0.6928434000050715 
0.6719587651595198 
0.8306493490601352 
0.395356238376064 
0.42702075546305407 
0.4846675123134821 
0.4280623950058487 
0.6315183745707592 
0.2128596970133214 
0.26323284817250076 
0.2143178222258819 
0.3770173588434632 
0.35044496407986464 
0.6455399567140097 
0.5663186707808006 
0.6620097663216182 
0.668274946635708 
0.4799607880992344 
0.9326653803435914 
0.9421779841026977 
0.9891763454683606 
0.8112969352358272 
0.4112094475342029 
3.316351622478635 
1.5797883657983436 
0.5811589280172375 
0.6007154396251261 
0.6926250796852153 
0.46351081703478036 
0.7427779639458368 
0.787349076510873 
-0.13865840546154284 
-0.03129902842191187 
-0.04591018446197635 
0.7044527810764051 
0.6454739290267787 
0.4967106226326631 
0.5824760979239041 
0.614869535650394 
0.22401692517158853 
0.100861435012127 
0.591999846080802 
0.7322020554570284 
0.7240236784270483 
0.672641701247916 
0.68577016491185 
0.6707578187569629 
0.5876493602317383 
0.563663975137368 
0.06660345249836923 
-0.14861770034065094 
-0.08844564157304881 
0.6196239249345459 
0.648126476727313 
0.9376802698261377 
0.8512350560731325 
0.8869889872190422 
0.2569135915504735 
0.6395833170531081 
0.2999495080743376 
0.2876186274836237 
-0.3831568460402949 
-0.4505632887819091 
0.9317830094573873 
0.9118076212914942 
0.9066214606109041 
0.7856007018344537 
0.8965201034551148 
0.4495971726554997 
0.4267408461531374 
0.34619398112762123 
0.5534381971883346 
-0.03164583364261747 
0.4209550003627842 
0.8167795023444182 
0.5947610652715674 
0.5986427101133319 
1.080894155197565 
1.124516973072745 
0.7082876394473365 
1.1116688682935383 
0.7345153332987128 
0.6507463422998698 
0.09094944017115197 
0.10723740128097549 
0.04110039596130002 
2.0531051733159043 
2.8627282753486525 
0.22909786994086886 
0.3758472150672969 
0.2475344671545028 
0.5793087661418709 
0.48644813368833034 
0.48634059651795497 
0.7943703290056776 
0.20456900799013508 
0.2361618511126679 
0.0064864072199297485 
-0.013164158000667408 
0.0025378478800204417 
0.588303663169319 
0.7636477118500342 
0.45821909502264274 
0.3629976409151712 
0.10373199566321724 
0.1075761263923865 
0.646146237717647 
0.7717872795043961 
0.9403027762319599 
0.9393055217477383 
0.9343686335362779 
0.4249408891284299 
0.9982666543158347 
0.7358393742350968 
0.4617323706912285 
0.5893884499525492 
0.8773970415658391 
0.4764070104829387 
0.2456109989885586 
0.2188337742639846 
0.06223515360010943 
-0.038567611720127376 
0.03538642547951739 
0.004765430451034355 
-0.28365795590627246 
0.27172392199891493 
0.12061987013047949 
0.1435470614966049 
0.9224382766086248 
0.6268392747650913 
0.2842509927753599 