# vtk DataFile Version 3.0 
Unstructured Grid 
ASCII 
DATASET UNSTRUCTURED_GRID
POINTS 10054 float 
0.5 0 0  
1 0 0  
1 1 0  
0 1 0  
0 0.5 0  
0.5 0.5 0  
0.51 0 0  
0.52 0 0  
0.53 0 0  
0.54 0 0  
0.55 0 0  
0.56 0 0  
0.57 0 0  
0.58 0 0  
0.59 0 0  
0.6 0 0  
0.61 0 0  
0.62 0 0  
0.63 0 0  
0.64 0 0  
0.65 0 0  
0.66 0 0  
0.67 0 0  
0.68 0 0  
0.69 0 0  
0.7 0 0  
0.71 0 0  
0.72 0 0  
0.73 0 0  
0.74 0 0  
0.75 0 0  
0.76 0 0  
0.77 0 0  
0.78 0 0  
0.79 0 0  
0.8 0 0  
0.81 0 0  
0.82 0 0  
0.83 0 0  
0.84 0 0  
0.85 0 0  
0.86 0 0  
0.87 0 0  
0.88 0 0  
0.89 0 0  
0.9 0 0  
0.91 0 0  
0.92 0 0  
0.93 0 0  
0.94 0 0  
0.95 0 0  
0.96 0 0  
0.97 0 0  
0.98 0 0  
0.99 0 0  
1 0.01 0  
1 0.02 0  
1 0.03 0  
1 0.04 0  
1 0.05 0  
1 0.06 0  
1 0.07 0  
1 0.08 0  
1 0.09 0  
1 0.1 0  
1 0.11 0  
1 0.12 0  
1 0.13 0  
1 0.14 0  
1 0.15 0  
1 0.16 0  
1 0.17 0  
1 0.18 0  
1 0.19 0  
1 0.2 0  
1 0.21 0  
1 0.22 0  
1 0.23 0  
1 0.24 0  
1 0.25 0  
1 0.26 0  
1 0.27 0  
1 0.28 0  
1 0.29 0  
1 0.3 0  
1 0.31 0  
1 0.32 0  
1 0.33 0  
1 0.34 0  
1 0.35 0  
1 0.36 0  
1 0.37 0  
1 0.38 0  
1 0.39 0  
1 0.4 0  
1 0.41 0  
1 0.42 0  
1 0.43 0  
1 0.44 0  
1 0.45 0  
1 0.46 0  
1 0.47 0  
1 0.48 0  
1 0.49 0  
1 0.5 0  
1 0.51 0  
1 0.52 0  
1 0.53 0  
1 0.54 0  
1 0.55 0  
1 0.56 0  
1 0.57 0  
1 0.58 0  
1 0.59 0  
1 0.6 0  
1 0.61 0  
1 0.62 0  
1 0.63 0  
1 0.64 0  
1 0.65 0  
1 0.66 0  
1 0.67 0  
1 0.68 0  
1 0.69 0  
1 0.7 0  
1 0.71 0  
1 0.72 0  
1 0.73 0  
1 0.74 0  
1 0.75 0  
1 0.76 0  
1 0.77 0  
1 0.78 0  
1 0.79 0  
1 0.8 0  
1 0.81 0  
1 0.82 0  
1 0.83 0  
1 0.84 0  
1 0.85 0  
1 0.86 0  
1 0.87 0  
1 0.88 0  
1 0.89 0  
1 0.9 0  
1 0.91 0  
1 0.92 0  
1 0.93 0  
1 0.94 0  
1 0.95 0  
1 0.96 0  
1 0.97 0  
1 0.98 0  
1 0.99 0  
0.99 1 0  
0.98 1 0  
0.97 1 0  
0.96 1 0  
0.95 1 0  
0.94 1 0  
0.93 1 0  
0.92 1 0  
0.91 1 0  
0.9 1 0  
0.89 1 0  
0.88 1 0  
0.87 1 0  
0.86 1 0  
0.85 1 0  
0.84 1 0  
0.83 1 0  
0.82 1 0  
0.81 1 0  
0.8 1 0  
0.79 1 0  
0.78 1 0  
0.77 1 0  
0.76 1 0  
0.75 1 0  
0.74 1 0  
0.73 1 0  
0.72 1 0  
0.71 1 0  
0.7 1 0  
0.69 1 0  
0.68 1 0  
0.67 1 0  
0.66 1 0  
0.65 1 0  
0.64 1 0  
0.63 1 0  
0.62 1 0  
0.61 1 0  
0.6 1 0  
0.59 1 0  
0.58 1 0  
0.57 1 0  
0.56 1 0  
0.55 1 0  
0.54 1 0  
0.53 1 0  
0.52 1 0  
0.51 1 0  
0.5 1 0  
0.49 1 0  
0.48 1 0  
0.47 1 0  
0.46 1 0  
0.45 1 0  
0.44 1 0  
0.43 1 0  
0.42 1 0  
0.41 1 0  
0.4 1 0  
0.39 1 0  
0.38 1 0  
0.37 1 0  
0.36 1 0  
0.35 1 0  
0.34 1 0  
0.33 1 0  
0.32 1 0  
0.31 1 0  
0.3 1 0  
0.29 1 0  
0.28 1 0  
0.27 1 0  
0.26 1 0  
0.25 1 0  
0.24 1 0  
0.23 1 0  
0.22 1 0  
0.21 1 0  
0.2 1 0  
0.19 1 0  
0.18 1 0  
0.17 1 0  
0.16 1 0  
0.15 1 0  
0.14 1 0  
0.13 1 0  
0.12 1 0  
0.11 1 0  
0.1 1 0  
0.09 1 0  
0.08 1 0  
0.07 1 0  
0.06 1 0  
0.05 1 0  
0.04 1 0  
0.03 1 0  
0.02 1 0  
0.01 1 0  
0 0.99 0  
0 0.98 0  
0 0.97 0  
0 0.96 0  
0 0.95 0  
0 0.94 0  
0 0.93 0  
0 0.92 0  
0 0.91 0  
0 0.9 0  
0 0.89 0  
0 0.88 0  
0 0.87 0  
0 0.86 0  
0 0.85 0  
0 0.84 0  
0 0.83 0  
0 0.82 0  
0 0.81 0  
0 0.8 0  
0 0.79 0  
0 0.78 0  
0 0.77 0  
0 0.76 0  
0 0.75 0  
0 0.74 0  
0 0.73 0  
0 0.72 0  
0 0.71 0  
0 0.7 0  
0 0.69 0  
0 0.68 0  
0 0.67 0  
0 0.66 0  
0 0.65 0  
0 0.64 0  
0 0.63 0  
0 0.62 0  
0 0.61 0  
0 0.6 0  
0 0.59 0  
0 0.58 0  
0 0.57 0  
0 0.56 0  
0 0.55 0  
0 0.54 0  
0 0.53 0  
0 0.52 0  
0 0.51 0  
0.01 0.5 0  
0.02 0.5 0  
0.03 0.5 0  
0.04 0.5 0  
0.05 0.5 0  
0.06 0.5 0  
0.07 0.5 0  
0.08 0.5 0  
0.09 0.5 0  
0.1 0.5 0  
0.11 0.5 0  
0.12 0.5 0  
0.13 0.5 0  
0.14 0.5 0  
0.15 0.5 0  
0.16 0.5 0  
0.17 0.5 0  
0.18 0.5 0  
0.19 0.5 0  
0.2 0.5 0  
0.21 0.5 0  
0.22 0.5 0  
0.23 0.5 0  
0.24 0.5 0  
0.25 0.5 0  
0.26 0.5 0  
0.27 0.5 0  
0.28 0.5 0  
0.29 0.5 0  
0.3 0.5 0  
0.31 0.5 0  
0.32 0.5 0  
0.33 0.5 0  
0.34 0.5 0  
0.35 0.5 0  
0.36 0.5 0  
0.37 0.5 0  
0.38 0.5 0  
0.39 0.5 0  
0.4 0.5 0  
0.41 0.5 0  
0.42 0.5 0  
0.43 0.5 0  
0.44 0.5 0  
0.45 0.5 0  
0.46 0.5 0  
0.47 0.5 0  
0.48 0.5 0  
0.49 0.5 0  
0.5 0.49 0  
0.5 0.48 0  
0.5 0.47 0  
0.5 0.46 0  
0.5 0.45 0  
0.5 0.44 0  
0.5 0.43 0  
0.5 0.42 0  
0.5 0.41 0  
0.5 0.4 0  
0.5 0.39 0  
0.5 0.38 0  
0.5 0.37 0  
0.5 0.36 0  
0.5 0.35 0  
0.5 0.34 0  
0.5 0.33 0  
0.5 0.32 0  
0.5 0.31 0  
0.5 0.3 0  
0.5 0.29 0  
0.5 0.28 0  
0.5 0.27 0  
0.5 0.26 0  
0.5 0.25 0  
0.5 0.24 0  
0.5 0.23 0  
0.5 0.22 0  
0.5 0.21 0  
0.5 0.2 0  
0.5 0.19 0  
0.5 0.18 0  
0.5 0.17 0  
0.5 0.16 0  
0.5 0.15 0  
0.5 0.14 0  
0.5 0.13 0  
0.5 0.12 0  
0.5 0.11 0  
0.5 0.1 0  
0.5 0.09 0  
0.5 0.08 0  
0.5 0.07 0  
0.5 0.06 0  
0.5 0.05 0  
0.5 0.04 0  
0.5 0.03 0  
0.5 0.02 0  
0.5 0.01 0  
0.7083776 0.70571774 0  
0.7490302 0.4245358 0  
0.25547853 0.7499773 0  
0.4849231 0.76931924 0  
0.78530693 0.2155152 0  
0.8263753 0.58092695 0  
0.82801056 0.82841945 0  
0.65358096 0.5546537 0  
0.62510705 0.84211683 0  
0.65634644 0.30025217 0  
0.3787049 0.65560246 0  
0.6496289 0.1497724 0  
0.36176586 0.85256356 0  
0.14851977 0.6494855 0  
0.14704801 0.8519029 0  
0.5371363 0.63875705 0  
0.8587216 0.3350812 0  
0.8693868 0.7043311 0  
0.87326795 0.46397805 0  
0.87520325 0.12634462 0  
0.62500113 0.43177634 0  
0.26217332 0.6210581 0  
0.51501167 0.8827512 0  
0.730533 0.8867606 0  
0.5960789 0.73397845 0  
0.25507003 0.8873148 0  
0.7499079 0.10896132 0  
0.108819515 0.7485123 0  
0.89205563 0.23236853 0  
0.7575616 0.32299915 0  
0.8987432 0.89866894 0  
0.38653407 0.7549507 0  
0.7462073 0.5235261 0  
0.5956752 0.22639276 0  
0.4518892 0.5950001 0  
0.7384548 0.6171712 0  
0.63455164 0.64608276 0  
0.74301255 0.79196084 0  
0.9070299 0.6207157 0  
0.90679616 0.78637457 0  
0.43056685 0.91098326 0  
0.46265015 0.6844013 0  
0.58911455 0.08709141 0  
0.6993552 0.22412066 0  
0.5873164 0.35340267 0  
0.08696203 0.588235 0  
0.08662377 0.9133762 0  
0.8122767 0.913572 0  
0.56613445 0.555718 0  
0.9151023 0.5358608 0  
0.7879094 0.6858672 0  
0.33871257 0.5829352 0  
0.5906886 0.91681105 0  
0.91742855 0.39267907 0  
0.68394196 0.37668586 0  
0.19309959 0.5808205 0  
0.30526125 0.6882331 0  
0.55131185 0.8119532 0  
0.18255381 0.71715033 0  
0.66446114 0.77341247 0  
0.32563046 0.9208014 0  
0.18442652 0.92160076 0  
0.43938145 0.8316505 0  
0.68058175 0.078152314 0  
0.29119498 0.8189163 0  
0.075931214 0.6813202 0  
0.0773366 0.8218111 0  
0.8233679 0.40177724 0  
0.2156892 0.814981 0  
0.6893697 0.4730263 0  
0.66551113 0.92366314 0  
0.81958157 0.07475926 0  
0.92504954 0.29985505 0  
0.8131539 0.7553672 0  
0.92682254 0.073790364 0  
0.573337 0.48360118 0  
0.8021452 0.47562256 0  
0.5729097 0.15817489 0  
0.5283545 0.7121207 0  
0.83109385 0.26995632 0  
0.92885065 0.1714702 0  
0.8084668 0.14987445 0  
0.5699054 0.2873056 0  
0.23734702 0.6822354 0  
0.93482333 0.6816544 0  
0.3202194 0.75935555 0  
0.8386551 0.6466334 0  
0.68786436 0.8354846 0  
0.93523127 0.84484035 0  
0.93525183 0.47417825 0  
0.7385706 0.17401499 0  
0.5639235 0.4135662 0  
0.8518203 0.52577883 0  
0.15778454 0.78994435 0  
0.39887795 0.5635609 0  
0.48591867 0.93783724 0  
0.5045574 0.5616344 0  
0.6328872 0.4946391 0  
0.747752 0.2618301 0  
0.28162414 0.5611001 0  
0.757937 0.9396835 0  
0.85747665 0.18322454 0  
0.6808778 0.60742223 0  
0.5847056 0.67372245 0  
0.7601696 0.7369718 0  
0.13864899 0.5589242 0  
0.771752 0.8443792 0  
0.58885163 0.60749626 0  
0.9411325 0.9411325 0  
0.64931834 0.7019368 0  
0.3803437 0.9411501 0  
0.4962606 0.8289694 0  
0.2724298 0.94235855 0  
0.85921544 0.9428855 0  
0.94283754 0.7401126 0  
0.6037989 0.7909468 0  
0.20195097 0.6353011 0  
0.8724249 0.056662124 0  
0.44025454 0.7368026 0  
0.7333966 0.05578572 0  
0.056032978 0.73218215 0  
0.57016623 0.86501724 0  
0.13328011 0.94418544 0  
0.7750069 0.37503093 0  
0.54138994 0.9441841 0  
0.3575233 0.70660186 0  
0.6482958 0.24611902 0  
0.7708543 0.57322073 0  
0.31825817 0.6341497 0  
0.20344022 0.86945415 0  
0.8790284 0.84746283 0  
0.9449325 0.24904926 0  
0.7001513 0.13010767 0  
0.13099378 0.69988793 0  
0.63093746 0.054080494 0  
0.9454113 0.5813253 0  
0.053976756 0.6317261 0  
0.05475998 0.86977065 0  
0.30535793 0.8698092 0  
0.7068297 0.5607408 0  
0.70297486 0.32608324 0  
0.8796431 0.57523125 0  
0.35511392 0.7995847 0  
0.9468036 0.34842554 0  
0.7902632 0.62080383 0  
0.5516399 0.7595287 0  
0.9474315 0.12276855 0  
0.8103129 0.3157885 0  
0.4840777 0.63569593 0  
0.43113354 0.6415601 0  
0.8014949 0.5309971 0  
0.6318708 0.3813511 0  
0.7013325 0.653751 0  
0.85767996 0.7858696 0  
0.5512782 0.05132927 0  
0.20584688 0.7653332 0  
0.051004216 0.55081666 0  
0.051542126 0.9492848 0  
0.55093247 0.20381424 0  
0.41260448 0.69297475 0  
0.46551895 0.87456363 0  
0.708791 0.9498317 0  
0.23257473 0.54966235 0  
0.69831944 0.27355358 0  
0.7396479 0.4721476 0  
0.424981 0.7829806 0  
0.63487065 0.19775377 0  
0.66414857 0.87423956 0  
0.87720895 0.29090282 0  
0.6748222 0.42535678 0  
0.86919653 0.38343775 0  
0.95010287 0.8931558 0  
0.049551465 0.78014296 0  
0.63374305 0.10351754 0  
0.22368513 0.95105755 0  
0.7108629 0.7562973 0  
0.95086277 0.42821413 0  
0.7906316 0.7975103 0  
0.6250463 0.9505445 0  
0.5484386 0.11493094 0  
0.38048035 0.6077626 0  
0.8530735 0.8878743 0  
0.10244462 0.6321017 0  
0.10244462 0.8678983 0  
0.4449552 0.5482779 0  
0.38483438 0.89424235 0  
0.6096617 0.31178266 0  
0.77973443 0.047713377 0  
0.6889947 0.17581274 0  
0.95220363 0.6409827 0  
0.6843384 0.51929355 0  
0.60910714 0.53639555 0  
0.8336504 0.22262527 0  
0.9531691 0.80213416 0  
0.6353408 0.59792024 0  
0.14372276 0.8986277 0  
0.7303149 0.36503384 0  
0.5470961 0.33056587 0  
0.8961254 0.7413622 0  
0.88434815 0.66018504 0  
0.7476442 0.66334695 0  
0.44096395 0.9538163 0  
0.15293482 0.60241795 0  
0.25261644 0.84248227 0  
0.5455435 0.24938121 0  
0.54266566 0.51730525 0  
0.48445526 0.723047 0  
0.53903866 0.59180266 0  
0.90291065 0.35019177 0  
0.9551321 0.5154258 0  
0.825017 0.710967 0  
0.3949979 0.82131016 0  
0.77483594 0.88901466 0  
[...]
POINT_DATA 10054 
SCALARS fi float 
LOOKUP_TABLE default 
0.5000000000037111 
0.5000000000061886 
3.333124910279934e-22 
1.2346121786926209e-12 
2.0779536832230972e-14 
2.8359607941843806e-11 
0.9999999999894327 
0.9999999999979647 
0.9999999999994846 
0.9999999999997211 
0.9999999999999336 
0.9999999999999589 
0.9999999999999803 
0.9999999999999956 
0.999999999999997 
0.9999999999999988 
0.9999999999999993 
0.9999999999999998 
0.9999999999999998 
1.0000000000000004 
0.9999999999999998 
0.9999999999999999 
1.0 
1.0 
0.9999999999999999 
0.9999999999999999 
1.0000000000000004 
1.0 
0.9999999999999996 
1.0000000000000002 
1.0000000000000002 
1.0000000000000002 
0.9999999999999997 
1.0000000000000002 
0.9999999999999999 
1.0000000000000002 
1.0 
1.0 
1.0000000000000002 
0.9999999999999999 
1.0000000000000002 
1.0 
1.0000000000000002 
0.9999999999999999 
0.9999999999999998 
1.0 
1.0 
0.9999999999999997 
0.9999999999999994 
0.9999999999999988 
1.0000000000000007 
0.9999999999999685 
0.9999999999999611 
0.9999999999993064 
0.9999999999931497 
2.797005165819774e-11 
1.5734090894960883e-11 
1.2344627123126737e-11 
9.579832756702242e-12 
8.351181816137933e-12 
7.343613642740428e-12 
6.514830947092573e-12 
5.85748152499737e-12 
5.21440243673094e-12 
4.654242232579262e-12 
4.283467557514067e-12 
3.846120444621582e-12 
3.501529441721768e-12 
3.1651883859415623e-12 
2.8813055507021623e-12 
2.560217625044614e-12 
2.351975002970491e-12 
2.140839228710633e-12 
1.918037196363329e-12 
1.7207698676483486e-12 
1.5223377997723342e-12 
1.3960336872892406e-12 
1.2651971943778706e-12 
1.1185770698734658e-12 
9.883221439624994e-13 
8.843646798662287e-13 
7.969105210640164e-13 
6.934485652161746e-13 
6.198310812954518e-13 
5.051971006552186e-13 
4.964986094925209e-13 
4.125253927471102e-13 
3.557251609541037e-13 
3.104844851633377e-13 
2.789518112544865e-13 
2.388021098072319e-13 
2.0089968042781004e-13 
1.6062559763762342e-13 
1.550665713505508e-13 
1.2755026210896558e-13 
9.060099250455333e-14 
8.955869414652797e-14 
7.505235762050035e-14 
6.197741585951358e-14 
5.286899012202296e-14 
4.175045043941225e-14 
3.4017198243776545e-14 
2.5056166314999078e-14 
2.602266212527694e-14 
1.9175779530114004e-14 
1.551940751372675e-14 
1.3355093518255993e-14 
8.746739840174038e-15 
9.052618401177549e-15 
6.413720973834993e-15 
4.882652389789429e-15 
3.1026555255504054e-15 
3.2826424547774233e-15 
2.4884467249981752e-15 
1.5077836564807189e-15 
1.2006173977187135e-15 
1.194432446622458e-15 
8.090363211026658e-16 
6.948196618479016e-16 
4.873939417685245e-16 
3.6907152998383167e-16 
2.007050375264268e-16 
2.2519263485398686e-16 
1.3267906545018624e-16 
8.406594637313843e-17 
7.899823198848099e-17 
4.480083122703954e-17 
1.072973264217947e-17 
3.4903673434320843e-17 
1.7206011026270385e-17 
1.4334950658272288e-17 
9.618555710805213e-18 
6.0237729892417195e-18 
4.662483927292651e-18 
4.1462096364561534e-19 
2.3671207809690816e-18 
1.0550979911440484e-18 
1.098040560915216e-18 
2.2055941917524816e-19 
4.1995073688428684e-19 
2.738227097461456e-19 
1.4103628377454693e-19 
2.6308244926583585e-20 
6.951447880881383e-20 
4.6317449079693615e-20 
2.4975669547834497e-20 
1.7265602072018258e-20 
6.286208713521686e-21 
4.8491187291136204e-21 
1.1238363158017813e-21 
1.6858718635653691e-21 
-2.3031818973662937e-23 
9.372127295985877e-22 
-2.0046726781077954e-22 
3.855968428707129e-21 
1.6130856534033082e-20 
6.235755646149158e-20 
1.7367823826637292e-19 
4.894190442140179e-19 
1.2250305743555741e-18 
2.7386065760551315e-18 
6.170459269061565e-18 
1.2736126553940515e-17 
2.3790584143898033e-17 
4.832240416125534e-17 
8.48177185742476e-17 
1.5222975903427794e-16 
2.5197498139055354e-16 
4.422318693122962e-16 
6.92057411525257e-16 
1.1621316567588748e-15 
1.7346257051250038e-15 
2.6688303638868068e-15 
3.942242552668653e-15 
5.80878887520256e-15 
8.48863776758623e-15 
1.1648285592798575e-14 
1.621094857333542e-14 
2.3227761095708715e-14 
3.031476205020283e-14 
4.1183979839778025e-14 
5.3663801822231715e-14 
6.888546139510693e-14 
8.570014230765712e-14 
1.1966765643392106e-13 
1.3630957131923503e-13 
1.8455717434985536e-13 
2.097586916340788e-13 
2.6110305021931713e-13 
3.213624696323972e-13 
3.789712575637639e-13 
4.494819521612216e-13 
5.1774463205978e-13 
6.434256394226977e-13 
6.899545469237235e-13 
8.064872798993206e-13 
9.689802875516686e-13 
1.0476125759219488e-12 
1.1735779377828929e-12 
1.3303711794577955e-12 
1.474554461578266e-12 
1.628741861127802e-12 
1.7715837929306144e-12 
2.049512917514595e-12 
2.185618372288999e-12 
2.1454375661415944e-12 
2.5382324947799887e-12 
2.65433462628214e-12 
2.9355072144334344e-12 
2.9791408967499374e-12 
3.1454989915901796e-12 
3.361166479971236e-12 
3.5588773631261127e-12 
3.735300375755044e-12 
4.022765460741427e-12 
3.773550158367926e-12 
4.337562223898844e-12 
4.181122522339453e-12 
4.503619638858082e-12 
4.5272512109869885e-12 
4.674419123565153e-12 
4.759467870469522e-12 
4.854641884529768e-12 
4.903313614634498e-12 
4.845151781303261e-12 
5.070022213652564e-12 
5.070043422287498e-12 
4.9711246634060804e-12 
5.064108980356236e-12 
5.139213939697628e-12 
5.178495598701553e-12 
5.0155007965378725e-12 
5.066772270701818e-12 
4.907385161516044e-12 
4.997128092375677e-12 
4.786814147892932e-12 
4.935873143860322e-12 
4.72610181166643e-12 
4.612527105527692e-12 
4.549880468407007e-12 
4.557491007854116e-12 
4.322162572588937e-12 
4.3203936857786525e-12 
4.10519947703362e-12 
4.018031209514401e-12 
3.963303271457928e-12 
3.738294989276079e-12 
3.641978221947378e-12 
3.5560699688386376e-12 
3.378353857301561e-12 
3.275058363255189e-12 
3.103314781912131e-12 
2.6085228053904552e-12 
5.835123775744131e-12 
1.0680491306260318e-11 
1.5498272010904925e-11 
1.880371003551981e-11 
2.2253094034728474e-11 
2.4436309747849824e-11 
2.5654808115578415e-11 
2.7749509283926306e-11 
3.0528164655630524e-11 
2.866169124914827e-11 
3.120710253109965e-11 
3.247563209533574e-11 
3.134356763256831e-11 
3.198019462107813e-11 
3.1931770853831927e-11 
3.153609422953759e-11 
3.3186763397487235e-11 
2.992075532224316e-11 
3.057963336533805e-11 
3.0396162553007205e-11 
2.7643542718990016e-11 
2.738011666831128e-11 
2.6003631488400895e-11 
2.4589382341098118e-11 
2.2563176783425255e-11 
2.0757285063808167e-11 
2.054989391087307e-11 
1.7119600048277252e-11 
1.5979194228871482e-11 
1.4423139099490067e-11 
1.2343112342353886e-11 
1.170321404169032e-11 
9.39954399197265e-12 
8.180210366401652e-12 
7.129118543514235e-12 
5.991629498531885e-12 
4.784935154404452e-12 
4.043181667945823e-12 
3.238322608347168e-12 
2.6501825810905165e-12 
2.132788723006711e-12 
1.593384854735418e-12 
1.187034802641483e-12 
9.482042377938147e-13 
6.990573144042139e-13 
4.704707202567971e-13 
3.384739722267962e-13 
1.976081817443408e-13 
9.625312046054573e-14 
5.41181993802292e-14 
7.411497979484738e-14 
7.42316877883777e-14 
7.116862641167075e-14 
6.573973475580857e-14 
5.996018517045622e-14 
5.704888559299242e-14 
5.1208837964293844e-14 
4.8938931279062115e-14 
4.6662958665861616e-14 
4.2112572116459044e-14 
4.142430160755608e-14 
3.771843088217913e-14 
3.7037935740293874e-14 
3.548194247876588e-14 
3.4732060694766733e-14 
3.3637808419710276e-14 
3.165911369141248e-14 
3.1282605972910546e-14 
3.283068316941142e-14 
3.2148785276487176e-14 
3.0144075605047286e-14 
3.2170267731897486e-14 
3.264501524787896e-14 
3.302764998013526e-14 
3.42140380491081e-14 
3.525442965365838e-14 
3.642144575346436e-14 
3.944380508691377e-14 
4.462513984053948e-14 
4.4080723197643795e-14 
4.984611627434728e-14 
5.989337524148085e-14 
5.6540670332696284e-14 
7.171476568478483e-14 
7.608518299989607e-14 
9.421899949704854e-14 
1.1481259984085018e-13 
1.0876678856071508e-13 
1.456526151051445e-13 
1.8307422152694347e-13 
2.5357739706527747e-13 
3.120244666724359e-13 
4.3176284779685977e-13 
5.701401995201523e-13 
7.994907752424172e-13 
1.298442839746539e-12 
1.5397320635083367e-12 
3.3488882403294453e-12 
2.320664626540483e-11 
2.2996291599378367e-11 
2.231107839658795e-11 
2.2779985802431642e-11 
2.1101187796875252e-11 
2.0486882830004476e-11 
2.0135206264397112e-11 
1.9632218682696098e-11 
1.8845103882161817e-11 
1.8246170586001152e-11 
1.8677334295770748e-11 
1.7177505814310445e-11 
1.6728641975424995e-11 
1.6123057159114778e-11 
1.5676874777048342e-11 
1.518338901707502e-11 
1.4729031456420058e-11 
1.423552548484743e-11 
1.3414896503549149e-11 
1.303898851431247e-11 
1.2956335789115608e-11 
1.2070812700514578e-11 
1.1535408954121935e-11 
1.1339127109143693e-11 
1.080889846031447e-11 
1.0473856217190752e-11 
9.848296307941051e-12 
9.928887926602008e-12 
9.349069705288687e-12 
8.970669526130472e-12 
8.696214370345262e-12 
8.42493580642163e-12 
8.071436063596713e-12 
7.987016444341121e-12 
7.737698414771707e-12 
7.521222906923001e-12 
7.489897761611324e-12 
7.235364667363485e-12 
7.124642386429463e-12 
7.284458217378425e-12 
7.188328730159381e-12 
7.342396709702584e-12 
7.493921063442274e-12 
7.7281948235481e-12 
8.412594707517959e-12 
8.907026932132449e-12 
1.0745843409973625e-11 
1.3528341469864634e-11 
2.441989309831717e-11 
0.33721132082568545 
0.9499138676049723 
0.8071128303655428 
0.7213889428159129 
0.9993872539223828 
0.2666011585810666 
0.003853746330401626 
0.9207265609214483 
0.17225934945979013 
0.9988676330903193 
0.7521957627170667 
0.9988803851477541 
0.6428630763166364 
0.23747626351650186 
0.7744163357984412 
0.9309213941440215 
0.8218834986643165 
0.015412487567677154 
0.3675063767063097 
0.9965715512595196 
0.9964082375076231 
0.227760362866611 
0.27222447214664813 
0.01445592187542404 
0.5906616039086329 
0.6410894950790846 
0.9999995988529131 
0.6498509973007903 
0.8852931418856403 
0.9936959751253095 
2.0268259064117848e-5 
0.8656153307739289 
0.7861416980002341 
0.9747136227846294 
0.7609147674671559 
0.5239650230538462 
0.7690904721344355 
0.06882958717538491 
0.020295220832804516 
0.00045488794328086836 
0.3305705918308772 
0.9198020808662243 
0.9832509891974237 
0.999888790927925 
0.9851072476261306 
0.058606632853438194 
0.6358667163619421 
0.000672221878534728 
0.9793001384758323 
0.061196214598758875 
0.14920458457122146 
0.17766976142725244 
0.08493936970988882 
0.2928436867541378 
0.9973499664469612 
0.054928314168655575 
0.6923043157214113 
0.4286733745693865 
0.5958492569522347 
0.26181092802575995 
0.4493485650077409 
0.576594975516818 
0.5955777273921521 
0.9999810102390326 
0.8004598054761584 
0.33863936597647076 
0.7811364890996303 
0.8143680769986755 
0.8186904258191073 
0.9665163154094105 
0.0245350296066487 
0.999997936638827 
0.4908040029717474 
0.02910612647510964 
0.9833122345863535 
0.9918398852819281 
0.7095081792067552 
0.9290576463799252 
0.807140310340386 
0.9746991749321253 
0.8170667622019913 
0.9998752215858698 
0.9474952634481364 
0.5097146880591591 
0.0015986627554337796 
0.8640912278759783 
0.09547443491987334 
0.08473188317080053 
1.2975221053170433e-5 
0.07232507528108499 
0.9999903406269145 
0.9798186550208471 
0.30380956163687295 
0.7916141950434136 
0.2276818647376152 
0.17171274378494505 
0.9050597250946311 
0.9837794645909561 
0.9994221608271063 
0.047317539509519384 
0.0019147300163383132 
0.9912227959275246 
0.7558531902603409 
0.8039136603707263 
0.1185531883352319 
0.023909969619046057 
0.013597632301396247 
0.924213996566659 
2.020221426963618e-7 
0.5466386514951634 
0.30725181449272737 
0.4935054793243707 
0.4315609869064488 
3.4954111473583264e-5 
0.00021576781204673686 
0.36809964274684115 
0.21963938699623745 
0.9999586240205225 
0.8613397040219217 
0.9999999312738685 
0.5540969338813025 
0.21888242637345878 
0.5122737994497842 
0.962369908483002 
0.09506551519931995 
0.8564408361826767 
0.9980292427959266 
0.537607183329223 
0.42378308944886295 
0.7255621191856443 
0.0003016621934855238 
0.4539969708091495 
0.9999751792891293 
0.45613812813805 
0.9997022924563523 
0.008052272383276356 
0.1547389670538942 
0.7418091632865804 
0.6516337110969365 
0.8072052525439863 
0.9989969558105265 
0.0982936229007833 
0.8022537756655405 
0.2006039471262026 
0.3004546116799182 
0.6152448356454342 
0.797638406652025 
0.9672207607760616 
0.9431198787673019 
0.8623282246360607 
0.537793128676339 
0.9977718138080366 
0.5390645470515979 
0.0038694603422345943 
0.9239181725392295 
0.7874585468398945 
0.02167349047925979 
0.48561365888947344 
0.8372231272645372 
0.9043249014009962 
0.39276286580024655 
0.005466716452195853 
0.021153477160287117 
0.9997810347748819 
0.9065687466951156 
0.7723922150503768 
0.996178205710472 
0.06389654358984108 
0.8363102352985969 
0.9922289397378202 
0.639864625591973 
6.899242735279483e-7 
0.7127307725422933 
0.9986242188408304 
0.4391284071806046 
0.1888330275593396 
0.07181009586725047 
0.02261865132249902 
0.0282575063694295 
0.8187022854937533 
0.4718926947827721 
0.0002853263602267816 
0.1584734941482871 
0.7480925441682744 
0.32708352808164537 
0.4617392968821668 
0.9913362774669559 
0.9999999952167239 
0.9998737516777516 
0.001538194780861126 
0.9274253324450554 
0.9737237820603326 
0.9914561126389455 
1.5234471207273457e-5 
0.8782973231653136 
0.6684157055577987 
0.9921485841249668 
0.9052990906988679 
0.0024418843989041923 
0.02192390955614762 
0.3338485662532621 
0.19105998208674504 
0.08909128269515966 
0.7685672011569112 
0.833276346092898 
0.9790442481748778 
0.8436997397466112 
0.9679566120822869 
0.51527658661086 
0.01608675296153009 
0.04799165215284482 
0.6998619236103315 
0.004416511128251139 
0.7703823992728729 
0.8374457464143911 
0.9939755876952375 
0.00031567792641481925 
0.9999344596418888 
0.9070700016836134 
0.014648351521513872 
0.45953603757507133 
0.38154197054982986 
0.24645953940796161 
0.927993355658211 
0.8976277668405661 
0.05721672966506807 
0.9988747650292695 
0.9889106137947593 
0.098559051993752 
0.8470548574264383 
0.002253516644081628 
0.9604697111715065 
0.16500947574102556 
0.948816425404385 
0.4456868388941749 
1.706190669267016e-6 
0.6548795825899539 
0.988918602225087 
0.8035711900921958 
0.685938894901857 
0.9998980746373334 
0.012639400996136784 
0.6752318977486413 
0.4932594194903052 
0.046691862371822455 
0.46703546185713296 
0.09595033784129968 
0.011222493360544724 
0.9864240840286594 
0.15488853174463063 
0.9968990023330209 
0.04149183201011144 
0.0667669762270415 
0.6489980955938718 
0.08355658146268485 
0.9999966624631238 
0.29506014704609973 
0.4383330249972744 
0.028487264672535685 
0.18198541212155894 
0.07335468713008084 
0.17788289453567616 
0.34800699830209764 
0.9999994120488386 
0.9999534078134424 
0.42920456017419106 
0.12704012123187558 
0.3891251558162627 
0.687960230025704 
0.5928599629471826 
0.9939213538089292 
0.5872824058926137 
0.280426039677237 
0.35546387564752446 
0.999999749440314 
0.7713278871195937 
0.8071064493492078 
0.48855950287958544 
0.7551360795297068 
0.9895610299675238 
0.6494288439987346 
0.5468462688141466 
0.5401634907267789 
0.5403027564372388 
0.9335637214411387 
0.9997795324410497 
0.21117365208959207 
0.9814667439145508 
0.9999983146851609 
0.9989696023531142 
0.9484135622296318 
0.9743036942416297 
0.6042146266094658 
0.5009640290882343 
0.025911325968820294 
0.9930013589125386 
0.9482056782298729 
0.32406342865942006 
0.7465339073374401 
0.9991010615821379 
0.009188023930069436 
0.22842306044377614 
0.7566417317165351 
0.7912109706049452 
0.00015009788626778263 
0.7308902797164821 
0.8505525196983448 
0.7018433650467859 
0.9655246927107096 
0.4974330587748107 
0.7065185838543646 
0.970244750144249 
0.2948016985608274 
0.7082812413907265 
0.656857134637126 
0.9000886352824806 
0.8499978925057522 
0.7817022178637629 
0.00015887354434259137 
0.6522642558925559 
0.48580725967440663 
0.9986444015541401 
0.3192219568584557 
0.9958705322997873 
0.9997992294885575 
0.660078732250826 
0.09368322719423361 
0.9999914139286122 
0.003903488841121865 
0.95669498558765 
0.8767654363447712 
0.2002909422207321 
0.0753924719234824 
0.004958031685844421 
0.17197308475904668 
0.8332203252403418 
0.9998538620455587 
0.9883117764417011 
0.9351297550795087 
0.1685325927126238 
0.5124916096784472 
5.506209704847906e-5 
0.72308252479807 
1.7774578545396994e-5 
0.8473635752281864 
0.050338643078189214 
0.7131378561176377 
0.9999913537182912 
0.05596895583120891 
0.2487104691293675 
0.8946131005366152 
0.9994351124790068 
0.28792682801610875 
0.8423427329313171 
0.0064927855872974624 
0.9959607081837424 
0.13525694468047236 
0.7563039067319712 
0.08132996801569536 
0.993988682412137 
6.371785680376958e-9 
0.9769010383628326 
0.0002431025258080967 
0.22084425908917635 
0.04642481712309844 
0.802392769969073 
0.9999999151046763 
5.799961398385172e-7 
0.0013002847701481348 
0.0013266398858932426 
0.0235161242766342 
0.0382200112296349 
3.618925396167506e-5 
0.8557978521030138 
0.9999971269745606 
0.009531943687496248 
0.6572814215392415 
0.038405714329732644 
0.1588346193641791 
0.9469311186064778 
0.1913009090131709 
0.9548536723189893 
0.007402405931265367 
0.7173986114757238 
0.011923377547572498 
0.0016034293308757135 
0.7940264517828517 
0.08702082166328182 
0.9626193526198569 
0.7518821252678998 
0.9712003729683049 
0.000927773635376077 
4.124752878778021e-8 
0.8139752114438698 
0.47074989656053456 
0.9750186425381762 
0.9747030817460999 
0.8920290986398355 
0.7111888277931555 
0.9983307618164791 
0.12524377787955862 
0.41564187966503124 
0.844245247458113 
0.3428422329619609 
0.9715803408638397 
0.9941347124878043 
0.7825074327600169 
0.9999681459362146 
0.12263500988616838 
0.6221498438967956 
0.9708933125498389 
0.9587543227993698 
0.8026184166986695 
0.8851513259315692 
0.34222803256510986 
0.43385190729888484 
0.5172845802845527 
0.6096240080517247 
0.9972512436119703 
0.9902881163504076 
0.6973976518380737 
0.217313510154095 
1.494496919230761e-6 
0.99987832931045 
0.9298994200187026 
0.3898341922274373 
0.4591711893018605 
0.9999999984763034 
0.17689587941181392 
0.10256241293308042 
0.007652836169204237 
0.999271030037149 
0.9991278350257683 
0.3555467761960758 
0.6172112087441703 
0.000562574195907998 
0.8640375234434357 
2.884561691083165e-6 
0.9999999931878614 
0.9131383705187783 
0.8374038545929469 
0.00017028312562987255 
0.5959145316802011 
0.6364078400508016 
0.0017182214802002212 
0.4541283984503754 
0.11475524507828366 
0.007835697919108148 
0.5056084704682711 
0.11407917691768367 
0.2085068004974188 
0.3776683927577318 
0.7286472380093219 
0.9594637942843125 
0.18905718670727498 
0.9274768198434168 
0.029494437129101235 
0.010401716003926564 
0.5380648004575569 
0.3615293006207792 
0.7246484918050091 
0.9411336563302999 
0.9971638713404132 
0.7731083059426439 
0.6906243364953137 
0.0021054701911592637 
1.3983711635423594e-7 
0.2896850572439393 
0.9058824616059332 
0.3578828319734052 
0.4664747356461975 
0.2493587936551444 
0.7483084527089519 
0.3728110368726065 
0.5067387997415085 
0.00016563734001904956 
0.010632907591042884 
0.5600792221265496 
0.8467083209005973 
0.3116904419272116 
0.017690816274633432 
0.9995815642423436 
4.085536935258252e-5 
6.0042469958708205e-6 
0.9998095601859012 
0.8393210716371661 
0.20946730119416568 
0.7706003650032971 
0.08922494455467388 
0.06374920139344242 
0.6212896628265051 
0.84756719659969 
0.9136553429339328 
0.7685382383503575 
0.4207800086351501 
0.9931843863165069 
0.2255407222899493 
0.8908978381477559 
0.23279783892647476 
0.0077484734085731645 
0.04055826316216724 
0.7355111681079892 
0.8267141511253192 
0.6040444709636223 
0.010744804842414125 
0.32800576553747207 
0.9873914419629255 
0.4265773861263947 
0.375936188078612 
0.3606419972835411 
0.7108948206756063 
0.034689971531521174 
0.03708902611102375 
0.00871396310495648 
0.6583729077310003 
0.9977858495260479 
0.05166404065625247 
0.3880695354985507 
0.8908903952956891 
0.6557772901735642 
0.13466596089771998 
0.00011161081142489652 
0.5708751207116499 
0.4906271074730215 
0.9995776976047024 
0.999839721656 
0.0009864398809282205 
0.9999999758483339 
0.9971908489684566 
0.9100094248303766 
0.8550973328420721 
0.996564412519795 