# vtk DataFile Version 3.0 
Unstructured Grid 
ASCII 
DATASET UNSTRUCTURED_GRID
POINTS 9690 float 
0.5 0 0  
1 0 0  
1 1 0  
0 1 0  
0 0.5 0  
0.5 0.5 0  
0.51 0 0  
0.52 0 0  
0.53 0 0  
0.54 0 0  
0.55 0 0  
0.56 0 0  
0.57 0 0  
0.58 0 0  
0.59 0 0  
0.6 0 0  
0.61 0 0  
0.62 0 0  
0.63 0 0  
0.64 0 0  
0.65 0 0  
0.66 0 0  
0.67 0 0  
0.68 0 0  
0.69 0 0  
0.7 0 0  
0.71 0 0  
0.72 0 0  
0.73 0 0  
0.74 0 0  
0.75 0 0  
0.76 0 0  
0.77 0 0  
0.78 0 0  
0.79 0 0  
0.8 0 0  
0.81 0 0  
0.82 0 0  
0.83 0 0  
0.84 0 0  
0.85 0 0  
0.86 0 0  
0.87 0 0  
0.88 0 0  
0.89 0 0  
0.9 0 0  
0.91 0 0  
0.92 0 0  
0.93 0 0  
0.94 0 0  
0.95 0 0  
0.96 0 0  
0.97 0 0  
0.98 0 0  
0.99 0 0  
1 0.01 0  
1 0.02 0  
1 0.03 0  
1 0.04 0  
1 0.05 0  
1 0.06 0  
1 0.07 0  
1 0.08 0  
1 0.09 0  
1 0.1 0  
1 0.11 0  
1 0.12 0  
1 0.13 0  
1 0.14 0  
1 0.15 0  
1 0.16 0  
1 0.17 0  
1 0.18 0  
1 0.19 0  
1 0.2 0  
1 0.21 0  
1 0.22 0  
1 0.23 0  
1 0.24 0  
1 0.25 0  
1 0.26 0  
1 0.27 0  
1 0.28 0  
1 0.29 0  
1 0.3 0  
1 0.31 0  
1 0.32 0  
1 0.33 0  
1 0.34 0  
1 0.35 0  
1 0.36 0  
1 0.37 0  
1 0.38 0  
1 0.39 0  
1 0.4 0  
1 0.41 0  
1 0.42 0  
1 0.43 0  
1 0.44 0  
1 0.45 0  
1 0.46 0  
1 0.47 0  
1 0.48 0  
1 0.49 0  
1 0.5 0  
1 0.51 0  
1 0.52 0  
1 0.53 0  
1 0.54 0  
1 0.55 0  
1 0.56 0  
1 0.57 0  
1 0.58 0  
1 0.59 0  
1 0.6 0  
1 0.61 0  
1 0.62 0  
1 0.63 0  
1 0.64 0  
1 0.65 0  
1 0.66 0  
1 0.67 0  
1 0.68 0  
1 0.69 0  
1 0.7 0  
1 0.71 0  
1 0.72 0  
1 0.73 0  
1 0.74 0  
1 0.75 0  
1 0.76 0  
1 0.77 0  
1 0.78 0  
1 0.79 0  
1 0.8 0  
1 0.81 0  
1 0.82 0  
1 0.83 0  
1 0.84 0  
1 0.85 0  
1 0.86 0  
1 0.87 0  
1 0.88 0  
1 0.89 0  
1 0.9 0  
1 0.91 0  
1 0.92 0  
1 0.93 0  
1 0.94 0  
1 0.95 0  
1 0.96 0  
1 0.97 0  
1 0.98 0  
1 0.99 0  
0.99 1 0  
0.98 1 0  
0.97 1 0  
0.96 1 0  
0.95 1 0  
0.94 1 0  
0.93 1 0  
0.92 1 0  
0.91 1 0  
0.9 1 0  
0.89 1 0  
0.88 1 0  
0.87 1 0  
0.86 1 0  
0.85 1 0  
0.84 1 0  
0.83 1 0  
0.82 1 0  
0.81 1 0  
0.8 1 0  
0.79 1 0  
0.78 1 0  
0.77 1 0  
0.76 1 0  
0.75 1 0  
0.74 1 0  
0.73 1 0  
0.72 1 0  
0.71 1 0  
0.7 1 0  
0.69 1 0  
0.68 1 0  
0.67 1 0  
0.66 1 0  
0.65 1 0  
0.64 1 0  
0.63 1 0  
0.62 1 0  
0.61 1 0  
0.6 1 0  
0.59 1 0  
0.58 1 0  
0.57 1 0  
0.56 1 0  
0.55 1 0  
0.54 1 0  
0.53 1 0  
0.52 1 0  
0.51 1 0  
0.5 1 0  
0.49 1 0  
0.48 1 0  
0.47 1 0  
0.46 1 0  
0.45 1 0  
0.44 1 0  
0.43 1 0  
0.42 1 0  
0.41 1 0  
0.4 1 0  
0.39 1 0  
0.38 1 0  
0.37 1 0  
0.36 1 0  
0.35 1 0  
0.34 1 0  
0.33 1 0  
0.32 1 0  
0.31 1 0  
0.3 1 0  
0.29 1 0  
0.28 1 0  
0.27 1 0  
0.26 1 0  
0.25 1 0  
0.24 1 0  
0.23 1 0  
0.22 1 0  
0.21 1 0  
0.2 1 0  
0.19 1 0  
0.18 1 0  
0.17 1 0  
0.16 1 0  
0.15 1 0  
0.14 1 0  
0.13 1 0  
0.12 1 0  
0.11 1 0  
0.1 1 0  
0.09 1 0  
0.08 1 0  
0.07 1 0  
0.06 1 0  
0.05 1 0  
0.04 1 0  
0.03 1 0  
0.02 1 0  
0.01 1 0  
0 0.99 0  
0 0.98 0  
0 0.97 0  
0 0.96 0  
0 0.95 0  
0 0.94 0  
0 0.93 0  
0 0.92 0  
0 0.91 0  
0 0.9 0  
0 0.89 0  
0 0.88 0  
0 0.87 0  
0 0.86 0  
0 0.85 0  
0 0.84 0  
0 0.83 0  
0 0.82 0  
0 0.81 0  
0 0.8 0  
0 0.79 0  
0 0.78 0  
0 0.77 0  
0 0.76 0  
0 0.75 0  
0 0.74 0  
0 0.73 0  
0 0.72 0  
0 0.71 0  
0 0.7 0  
0 0.69 0  
0 0.68 0  
0 0.67 0  
0 0.66 0  
0 0.65 0  
0 0.64 0  
0 0.63 0  
0 0.62 0  
0 0.61 0  
0 0.6 0  
0 0.59 0  
0 0.58 0  
0 0.57 0  
0 0.56 0  
0 0.55 0  
0 0.54 0  
0 0.53 0  
0 0.52 0  
0 0.51 0  
0.01 0.5 0  
0.02 0.5 0  
0.03 0.5 0  
0.04 0.5 0  
0.05 0.5 0  
0.06 0.5 0  
0.07 0.5 0  
0.08 0.5 0  
0.09 0.5 0  
0.1 0.5 0  
0.11 0.5 0  
0.12 0.5 0  
0.13 0.5 0  
0.14 0.5 0  
0.15 0.5 0  
0.16 0.5 0  
0.17 0.5 0  
0.18 0.5 0  
0.19 0.5 0  
0.2 0.5 0  
0.21 0.5 0  
0.22 0.5 0  
0.23 0.5 0  
0.24 0.5 0  
0.25 0.5 0  
0.26 0.5 0  
0.27 0.5 0  
0.28 0.5 0  
0.29 0.5 0  
0.3 0.5 0  
0.31 0.5 0  
0.32 0.5 0  
0.33 0.5 0  
0.34 0.5 0  
0.35 0.5 0  
0.36 0.5 0  
0.37 0.5 0  
0.38 0.5 0  
0.39 0.5 0  
0.4 0.5 0  
0.41 0.5 0  
0.42 0.5 0  
0.43 0.5 0  
0.44 0.5 0  
0.45 0.5 0  
0.46 0.5 0  
0.47 0.5 0  
0.48 0.5 0  
0.49 0.5 0  
0.5 0.49 0  
0.5 0.48 0  
0.5 0.47 0  
0.5 0.46 0  
0.5 0.45 0  
0.5 0.44 0  
0.5 0.43 0  
0.5 0.42 0  
0.5 0.41 0  
0.5 0.4 0  
0.5 0.39 0  
0.5 0.38 0  
0.5 0.37 0  
0.5 0.36 0  
0.5 0.35 0  
0.5 0.34 0  
0.5 0.33 0  
0.5 0.32 0  
0.5 0.31 0  
0.5 0.3 0  
0.5 0.29 0  
0.5 0.28 0  
0.5 0.27 0  
0.5 0.26 0  
0.5 0.25 0  
0.5 0.24 0  
0.5 0.23 0  
0.5 0.22 0  
0.5 0.21 0  
0.5 0.2 0  
0.5 0.19 0  
0.5 0.18 0  
0.5 0.17 0  
0.5 0.16 0  
0.5 0.15 0  
0.5 0.14 0  
0.5 0.13 0  
0.5 0.12 0  
0.5 0.11 0  
0.5 0.1 0  
0.5 0.09 0  
0.5 0.08 0  
0.5 0.07 0  
0.5 0.06 0  
0.5 0.05 0  
0.5 0.04 0  
0.5 0.03 0  
0.5 0.02 0  
0.5 0.01 0  
0.75286263 0.42208326 0  
0.25379786 0.7531286 0  
0.48194888 0.76863396 0  
0.78469294 0.21077667 0  
0.8257727 0.57924944 0  
0.8247057 0.829541 0  
0.6565258 0.5522894 0  
0.6243245 0.8405678 0  
0.6535871 0.30312005 0  
0.3801229 0.6538566 0  
0.6495575 0.1518664 0  
0.3634093 0.8506727 0  
0.15060346 0.65352726 0  
0.14562203 0.8518814 0  
0.5401337 0.63494194 0  
0.8588612 0.3326097 0  
0.868397 0.70473933 0  
0.8714798 0.46538606 0  
0.8733185 0.1264142 0  
0.62520236 0.4330436 0  
0.25851634 0.6207632 0  
0.51601017 0.8818057 0  
0.73089784 0.89042264 0  
0.5913559 0.7351374 0  
0.25094488 0.887678 0  
0.74891657 0.10855157 0  
0.10570914 0.7500601 0  
0.8885601 0.23320943 0  
0.76173514 0.32236853 0  
0.89732575 0.89792985 0  
0.38396868 0.75528234 0  
0.7490278 0.5252434 0  
0.5942789 0.22703554 0  
0.45253468 0.5958042 0  
0.73997545 0.62021965 0  
0.63679755 0.6442431 0  
0.74365646 0.78894246 0  
0.9066519 0.6222571 0  
0.90464795 0.78507 0  
0.42912906 0.9114042 0  
0.46184736 0.6849805 0  
0.69950914 0.22592275 0  
0.5844924 0.3539892 0  
0.08719862 0.58725786 0  
0.082564406 0.9098807 0  
0.8099877 0.91031283 0  
0.5661461 0.5578843 0  
0.91350853 0.5368806 0  
0.78913087 0.685583 0  
0.3372094 0.58031434 0  
0.5883129 0.9131013 0  
0.9163811 0.3917914 0  
0.6841807 0.37173572 0  
0.19595915 0.58023995 0  
0.3063758 0.6881551 0  
0.5511339 0.81373936 0  
0.6631202 0.7746772 0  
0.3222083 0.92137975 0  
0.18433684 0.9198813 0  
0.43714365 0.82977194 0  
0.68146473 0.07634424 0  
0.29111657 0.820167 0  
0.07437356 0.68203753 0  
0.076087706 0.8218577 0  
0.8250923 0.40435773 0  
0.21406613 0.81489605 0  
0.6839368 0.47874823 0  
0.66554666 0.92315876 0  
0.8178121 0.07241891 0  
0.9243971 0.3003664 0  
0.81552047 0.75206494 0  
0.92795974 0.0773927 0  
0.5725433 0.48749897 0  
0.80031896 0.4740426 0  
0.5757151 0.15764217 0  
0.52976036 0.7087843 0  
0.831153 0.26740912 0  
0.9298176 0.17332618 0  
0.8103124 0.15117756 0  
0.56994164 0.28777096 0  
0.23613685 0.6790343 0  
0.93357277 0.68331075 0  
0.31962454 0.7595099 0  
0.8423293 0.6447625 0  
0.68632597 0.8358403 0  
0.93722737 0.8467169 0  
0.93747425 0.47236177 0  
0.7390092 0.17284068 0  
0.56509966 0.41327095 0  
0.8525122 0.52361965 0  
0.15641825 0.78913337 0  
0.39969742 0.5607662 0  
0.48449644 0.9420272 0  
0.5048966 0.56459683 0  
0.63319224 0.49578983 0  
0.74463177 0.26445338 0  
0.28116226 0.5554562 0  
0.75636965 0.93879414 0  
0.8553112 0.18319899 0  
0.68186975 0.60882884 0  
0.5832469 0.6709121 0  
0.7637362 0.73566306 0  
0.14015397 0.55916184 0  
0.7731109 0.8429207 0  
0.5884861 0.60682887 0  
0.94482315 0.9450417 0  
0.65022075 0.7023349 0  
0.3793117 0.939243 0  
0.4968148 0.8274231 0  
0.27382392 0.9451085 0  
0.8617364 0.94178134 0  
0.9421854 0.73868847 0  
0.6021078 0.7905985 0  
0.20426126 0.63607115 0  
0.8703132 0.056024536 0  
0.4429952 0.7358403 0  
0.7359156 0.05611601 0  
0.055628836 0.73362935 0  
0.5702455 0.86680627 0  
0.131712 0.94132423 0  
0.7751177 0.3750673 0  
0.54127663 0.94484144 0  
0.35398585 0.71044546 0  
0.64704347 0.24739984 0  
0.77172583 0.5739915 0  
0.31840488 0.6304803 0  
0.20655403 0.8726153 0  
0.8785081 0.8504588 0  
0.94837296 0.24989374 0  
0.7006098 0.1310885 0  
0.13021883 0.7019762 0  
0.63017666 0.053236473 0  
0.94386435 0.5790715 0  
0.054007467 0.86858153 0  
0.30693454 0.8677706 0  
0.70639867 0.557041 0  
0.70318496 0.32492363 0  
0.8779223 0.5770994 0  
0.35348153 0.7979436 0  
0.94783604 0.34883574 0  
0.7906262 0.62142783 0  
0.5540596 0.759147 0  
0.946797 0.123368695 0  
0.80876005 0.3169959 0  
0.48443052 0.6334468 0  
0.43142626 0.6425285 0  
0.80266684 0.53078014 0  
0.6294878 0.3792153 0  
0.70229095 0.65414536 0  
0.54714566 0.05001854 0  
0.20808896 0.7618328 0  
0.04954696 0.54568934 0  
0.049468763 0.9488307 0  
0.550755 0.20224948 0  
0.41135076 0.6921282 0  
0.46581218 0.87222874 0  
0.7091211 0.9530163 0  
0.23098974 0.55088484 0  
0.6986967 0.2743002 0  
0.7388383 0.47351956 0  
0.42444697 0.7835259 0  
0.63728267 0.193974 0  
0.6641359 0.8758259 0  
0.87508684 0.29105696 0  
0.67352015 0.42565462 0  
0.8700105 0.38501117 0  
0.9496521 0.8941005 0  
0.0501361 0.77949977 0  
0.63377947 0.10312959 0  
0.2253648 0.95115787 0  
0.7079411 0.7543635 0  
0.94982064 0.42725867 0  
0.78821814 0.799477 0  
0.62878686 0.9501615 0  
0.5488679 0.11783097 0  
0.37983188 0.60548836 0  
0.8538246 0.88970274 0  
0.100763895 0.63054645 0  
0.10141023 0.86478484 0  
0.44739807 0.5451538 0  
0.383138 0.89345497 0  
0.60947686 0.3093772 0  
0.77532816 0.048103027 0  
0.6894729 0.17725341 0  
0.9522855 0.6415745 0  
0.68468034 0.51813734 0  
0.60709023 0.5375621 0  
0.8359351 0.2234592 0  
0.9522467 0.8021966 0  
0.63696426 0.59579355 0  
0.14182326 0.8998488 0  
0.73127145 0.3650943 0  
0.54797393 0.331622 0  
0.89797765 0.74234575 0  
0.8839027 0.658448 0  
0.74683684 0.66330063 0  
0.44497678 0.9514487 0  
0.15101257 0.6055626 0  
0.2566011 0.84170485 0  
0.547041 0.25174123 0  
0.5402985 0.5173249 0  
0.48340872 0.7207918 0  
0.5366791 0.59077907 0  
0.9038652 0.34650382 0  
0.9551468 0.5154175 0  
0.82895976 0.7135913 0  
0.39156342 0.8207401 0  
0.77852696 0.89037013 0  
0.113697454 0.7929461 0  
0.2549566 0.7931597 0  
0.7875725 0.2818955 0  
0.7981971 0.9529471 0  
0.7440263 0.21303913 0  
[...]
POINT_DATA 9690 
SCALARS fi float 
LOOKUP_TABLE default 
0.5000000000039164 
0.5000000000072047 
6.797554013510471e-22 
1.4659607032216091e-12 
2.567588792991136e-14 
2.5346895883505417e-11 
0.9999999999908468 
0.9999999999975873 
0.9999999999993067 
0.9999999999997667 
0.9999999999998942 
0.9999999999999576 
0.9999999999999806 
0.9999999999999913 
0.9999999999999969 
0.9999999999999989 
0.9999999999999992 
0.9999999999999997 
0.9999999999999996 
0.9999999999999998 
0.9999999999999999 
1.0 
0.9999999999999998 
1.0000000000000002 
0.9999999999999997 
0.9999999999999999 
1.0000000000000002 
1.0000000000000002 
0.9999999999999994 
1.0 
1.0 
0.9999999999999998 
1.0000000000000002 
1.0 
1.0000000000000002 
1.0 
1.0000000000000002 
0.9999999999999999 
1.0 
0.9999999999999999 
1.0000000000000002 
1.0000000000000002 
0.9999999999999999 
1.0000000000000002 
1.0 
0.9999999999999999 
1.0 
0.9999999999999994 
0.9999999999999991 
1.0000000000000016 
1.0000000000000022 
1.0000000000000024 
0.9999999999999235 
0.9999999999995094 
0.9999999999933428 
2.6996097657322786e-11 
1.5319437337833303e-11 
1.206312388646333e-11 
9.803367812431907e-12 
8.469392809270584e-12 
7.353139528795372e-12 
6.4854414072857296e-12 
5.824995171330914e-12 
5.218759787587922e-12 
4.717921983916025e-12 
4.314439725179169e-12 
3.780757258707094e-12 
3.4933215700274688e-12 
3.1514798400046816e-12 
2.9193067657718064e-12 
2.54755286900289e-12 
2.3555748300015886e-12 
2.1406505588491597e-12 
1.9241053566781426e-12 
1.7243938590885243e-12 
1.525375577993593e-12 
1.3828021153258985e-12 
1.297927088207847e-12 
1.0777983586620605e-12 
9.764781774979399e-13 
8.220788145910988e-13 
8.175165584821363e-13 
7.081848651047951e-13 
6.14736953624023e-13 
5.492977391315149e-13 
5.04209053312755e-13 
4.1203074705549656e-13 
3.1653408040647136e-13 
3.352484804900339e-13 
2.8250495487452233e-13 
2.388864753520186e-13 
1.9809098308314808e-13 
1.6310443360204444e-13 
1.4449718500414356e-13 
1.266499254111495e-13 
9.411691126176508e-14 
7.404055287224876e-14 
8.444967709078467e-14 
6.928962765327289e-14 
5.6285162416913575e-14 
4.092713912572691e-14 
3.753520684447939e-14 
2.7083826012269686e-14 
2.6172268901463787e-14 
1.9150191353449775e-14 
1.4652691204668962e-14 
1.1696960148850921e-14 
1.0384472678408814e-14 
8.07101656084928e-15 
6.852448776489625e-15 
4.515057195963072e-15 
3.230332630012868e-15 
3.6036723527111185e-15 
2.8160816410616517e-15 
1.5966311612760204e-15 
1.2064745085813305e-15 
8.191288663212738e-16 
1.013954284764001e-15 
6.755645530562769e-16 
5.208473199345062e-16 
2.2003910532979948e-16 
3.1607424972022373e-16 
2.2975230015637784e-16 
1.1861090616941697e-16 
1.2666099067699901e-16 
7.691647003538327e-17 
6.265021725529423e-17 
3.701553536234889e-17 
2.1285320501361785e-17 
2.1248561162756942e-17 
1.0592970008624593e-17 
7.720814067628038e-18 
5.7735054969241186e-18 
4.6402371309919894e-18 
3.2467107227254217e-20 
2.196857290057238e-18 
1.425312130900707e-18 
1.0350323553748219e-18 
1.8776767807125896e-19 
5.282983518271644e-19 
3.118821632427684e-19 
1.5425283953573378e-19 
9.036442810476184e-20 
8.603952407569418e-20 
4.4281301838372394e-20 
4.1243696322992397e-20 
1.8575379992954588e-20 
5.310788287453255e-21 
4.6978497603574586e-21 
5.041752664261035e-21 
3.3755580824669506e-21 
9.702986387348609e-22 
4.578202054257095e-22 
-4.1252800150609896e-23 
4.22422651906508e-21 
2.150052261183891e-20 
7.325985385959921e-20 
1.991162875996779e-19 
5.394454511106829e-19 
1.266074284097502e-18 
2.9420235398282674e-18 
6.372919362335241e-18 
1.2820950539736173e-17 
2.4198842059222906e-17 
4.914905960210342e-17 
8.437268451827572e-17 
1.5927686382207925e-16 
2.614963970584235e-16 
4.4406558906006453e-16 
7.319175353012555e-16 
1.1495122030807657e-15 
1.710858633015659e-15 
2.785295625392791e-15 
3.717131336260884e-15 
6.5125082900909826e-15 
8.183445501098657e-15 
1.1843257948936119e-14 
1.6686966538152737e-14 
2.2913909784572885e-14 
3.117683194470144e-14 
4.163882628668699e-14 
5.121539450619935e-14 
6.769717714983314e-14 
8.931894906984225e-14 
1.115529872148583e-13 
1.544785859713643e-13 
1.7011544993633023e-13 
2.159854003803537e-13 
2.631758757589076e-13 
3.171763535083361e-13 
3.7171664447195054e-13 
4.823690423993692e-13 
4.947070833481281e-13 
6.18849645208522e-13 
7.21273506731683e-13 
8.055382305170111e-13 
9.791681765531628e-13 
1.0360991162943157e-12 
1.201800209076399e-12 
1.322135767961613e-12 
1.4122745723050106e-12 
1.6422484259994241e-12 
1.832743854007763e-12 
1.9471495251443345e-12 
2.296134020633836e-12 
2.199961682906022e-12 
2.4478911266126147e-12 
2.6848253376260846e-12 
2.844344305779419e-12 
2.9199307925483795e-12 
3.2432142848610236e-12 
3.325081228529876e-12 
3.5533372582843915e-12 
4.057929810174253e-12 
3.731535339781516e-12 
3.9433104637331065e-12 
4.101845192814547e-12 
4.241715575453606e-12 
4.3976024802903955e-12 
4.5515001899200876e-12 
4.708269650487681e-12 
4.894823382721834e-12 
4.789653406419393e-12 
4.9724649015030926e-12 
4.8543879215377446e-12 
4.934115484422378e-12 
5.137762982129847e-12 
4.968366034697376e-12 
5.248378658577393e-12 
4.979156844304414e-12 
5.051478953475027e-12 
5.071781380170965e-12 
5.111751143074539e-12 
4.965274940080073e-12 
4.912360916756243e-12 
4.776592698449673e-12 
4.863828673130145e-12 
4.697310599679137e-12 
4.704132906870375e-12 
4.771980108962944e-12 
4.384805374671053e-12 
4.371368253724911e-12 
4.235284431350825e-12 
4.039880736582413e-12 
4.049817211422382e-12 
3.9446706751150165e-12 
3.732333343895485e-12 
3.662377412498186e-12 
3.5683173251068173e-12 
3.402538782707884e-12 
3.26114538406397e-12 
3.130662977634146e-12 
2.556131979143381e-12 
5.7063242134128724e-12 
1.0903384061193186e-11 
1.5250794776234893e-11 
1.8161030959510833e-11 
2.3311885413227162e-11 
2.381063641460788e-11 
2.6861351171849457e-11 
2.6973600241568823e-11 
2.995385208795185e-11 
2.8248490295535626e-11 
3.3007593814097127e-11 
3.0755713929199866e-11 
3.2135952783723685e-11 
3.217100271647735e-11 
3.1862352797269556e-11 
3.054340612465635e-11 
3.392860232357721e-11 
3.083235411452415e-11 
3.009295834702321e-11 
2.95089566359898e-11 
2.763514666451075e-11 
2.951325026691578e-11 
2.4967628128731562e-11 
2.4022941446594883e-11 
2.221384078263741e-11 
2.1970049207942464e-11 
2.0099496737246625e-11 
1.708691733886001e-11 
1.6040494709934344e-11 
1.434067492406727e-11 
1.2663780572989884e-11 
1.1894643337454472e-11 
9.284193124866178e-12 
8.263036153859448e-12 
7.087302863196185e-12 
5.957667263631312e-12 
4.9342557479383044e-12 
4.046645403842287e-12 
3.2561449290863093e-12 
2.6011072693629827e-12 
2.183695404672685e-12 
1.61251735106275e-12 
1.1998058621777123e-12 
9.97984981664598e-13 
6.545548657489859e-13 
4.878721575207544e-13 
3.3413241954882624e-13 
2.0539455937410204e-13 
9.677182991818253e-14 
5.314188805874204e-14 
7.286860666415927e-14 
7.447513174812827e-14 
7.159547467872469e-14 
6.510835334788305e-14 
6.132610268753351e-14 
5.572753696472751e-14 
5.267180712720256e-14 
4.970821869788663e-14 
4.713603694971948e-14 
4.298363848910131e-14 
4.159405356024431e-14 
3.8079668145330226e-14 
3.740496319797396e-14 
3.622598003864885e-14 
3.4473355820272235e-14 
3.43636981251677e-14 
3.297044211262958e-14 
3.136207921917956e-14 
3.316868304875279e-14 
3.1058332497228955e-14 
3.1834837589941596e-14 
3.225291783793256e-14 
3.2821225103983226e-14 
3.5905790126662564e-14 
3.4931205472949414e-14 
3.4555988623983375e-14 
3.531395988688296e-14 
4.1079072381166214e-14 
4.3321248012175e-14 
4.507930488575208e-14 
5.4405935235046204e-14 
5.979884203938593e-14 
6.035297536276834e-14 
7.461963402760858e-14 
6.955951195432283e-14 
1.0044319031736568e-13 
1.140638295034528e-13 
1.2954355033028336e-13 
1.5192945266671932e-13 
1.9816593708510986e-13 
2.0690629888744713e-13 
3.378322954638407e-13 
4.3217022298213883e-13 
5.89962343603966e-13 
8.346385237317289e-13 
1.262975567728488e-12 
2.111185547187638e-12 
4.404708885960012e-12 
2.379869845993758e-11 
2.2822290638322566e-11 
2.231357158939056e-11 
2.2732024723335745e-11 
2.0858667793949238e-11 
2.0688017550326e-11 
2.0101073603807658e-11 
1.9351007396944847e-11 
1.832792606509384e-11 
1.975673504750033e-11 
1.8002182210026517e-11 
1.7046235965223883e-11 
1.6710714707174637e-11 
1.6276873592520067e-11 
1.5388699061285214e-11 
1.5180892644357726e-11 
1.4385113509035759e-11 
1.4510144134586668e-11 
1.365823412754263e-11 
1.3028878953331604e-11 
1.2702318716828034e-11 
1.2247997137163026e-11 
1.1445876885580419e-11 
1.1765201143128794e-11 
1.0748408466143844e-11 
1.0337537035367535e-11 
9.90680936553675e-12 
9.794323282860844e-12 
9.334931128006466e-12 
8.975947971173505e-12 
8.67929655849408e-12 
8.391951382067169e-12 
8.131576201831923e-12 
7.89571968145098e-12 
7.767061833249358e-12 
7.55389710453009e-12 
7.401800901988044e-12 
7.2513490474697224e-12 
7.308734136979036e-12 
7.200249378210491e-12 
7.2278840657958406e-12 
7.309669417201807e-12 
7.500620261596078e-12 
7.686594083616783e-12 
8.422163124608465e-12 
9.15452563479259e-12 
1.0792187328931178e-11 
1.3489010550065747e-11 
2.3141502633982313e-11 
0.9476388399152765 
0.8122315968012379 
0.7287311433528233 
0.9994978819831928 
0.27339606560388324 
0.004171008531681518 
0.9202130379864452 
0.17726032523596535 
0.9987229479755029 
0.7513174061715724 
0.9988263170257172 
0.6470226909164222 
0.25692129518393075 
0.7747293606349228 
0.9330747764308679 
0.8269380118645762 
0.015773581122436407 
0.37360095178614877 
0.9968881155070708 
0.9963535790315615 
0.2224592062031503 
0.27323158411217596 
0.013223934029241649 
0.5994784576173618 
0.6432919547638074 
0.9999995890144382 
0.6545992555121903 
0.8968619686343602 
0.9927390975442402 
2.208085451837557e-5 
0.86618984282335 
0.7724812804357157 
0.9733345410223767 
0.7719070650916824 
0.5073255855314482 
0.7685993772923783 
0.07149713753932987 
0.020027682652387392 
0.0005232390865294328 
0.33145696675368014 
0.9196761387099133 
0.9998896665849984 
0.9836471757450854 
0.05742996098005726 
0.6471683633628516 
0.0008048434144560732 
0.9783780449722994 
0.06345318197912651 
0.14662568402340231 
0.16287479128252974 
0.09279095241967973 
0.30193983024130744 
0.9976665961363936 
0.054873897494762555 
0.6967056001532821 
0.42273498426819356 
0.26166279839802453 
0.45151727640362077 
0.5825914515986206 
0.6060417957407985 
0.9999832636946261 
0.7980990918700658 
0.34268307074043775 
0.7813612262408758 
0.8018479911077236 
0.8191686072651254 
0.9665180092796831 
0.024718648027167972 
0.9999985891681522 
0.4947189669095755 
0.02908219936335017 
0.9784973075951698 
0.9916456092094333 
0.7219087599225432 
0.9370168412509648 
0.8131617826663189 
0.9760256616338879 
0.80665014517525 
0.9998489444956802 
0.9478520311867781 
0.49203998188756204 
0.0016561763739082588 
0.8644447686063492 
0.09040651131022424 
0.08618581487878904 
1.035994906903337e-5 
0.06801383699417143 
0.9999902980689149 
0.9806683601281824 
0.30632759201275733 
0.7904668085578334 
0.2132891163329431 
0.16398727235374208 
0.9154677966186571 
0.9831533889278816 
0.9994385183032051 
0.03793813340965976 
0.002076393430440398 
0.9920550453814777 
0.7490015177387503 
0.8137750231018357 
0.11366934006990151 
0.024295146220874524 
0.01354746141528765 
0.9252403300324303 
1.2725969868980868e-7 
0.5423000503762456 
0.314784202975994 
0.4978710819701196 
0.4200844246392341 
3.209067519578532e-5 
0.00023051150076137437 
0.3736824307800108 
0.2261763878165165 
0.9999658226227371 
0.8610537280872473 
0.9999999427081198 
0.5612990969681956 
0.21402923328471038 
0.5250566726834358 
0.9623200052659602 
0.09417272609339304 
0.8586941815837026 
0.9978739971325021 
0.5311317362606757 
0.40358122436851956 
0.716076083290251 
0.00028137420067626573 
0.41697757302262206 
0.9999748477290228 
0.46708845053223774 
0.9997081650954989 
0.00908307524357581 
0.7438769437441777 
0.6566685377109924 
0.8170285139932818 
0.9990185840756742 
0.10005281852693321 
0.8073501651658463 
0.1932105390805189 
0.2970602513840986 
0.6107262387735484 
0.7997934523086789 
0.968094466412537 
0.9438211017935979 
0.8668460613858082 
0.5327611682206441 
0.9976136307735102 
0.5342131217140407 
0.9036361643474923 
0.7838500057069134 
0.01840794629278751 
0.4878933222708082 
0.8365900336198898 
0.9034751510959499 
0.4003321606910206 
0.00501432690840447 
0.02240417381331179 
0.9997735928914366 
0.9057292627187556 
0.7716871670934754 
0.9966633384438163 
0.06209847472181526 
0.8454547172559731 
0.9924259696833706 
0.6302885614653725 
7.059018383514883e-7 
0.7123444045363305 
0.99862275674682 
0.43763807551685796 
0.20068060386009554 
0.07583601562497594 
0.022959389350676932 
0.02681343623696349 
0.8210587343319733 
0.4552646422226233 
0.00026395846779231086 
0.15418157948096514 
0.7538391233361219 
0.3150604543301286 
0.46716685524905516 
0.9911387596534339 
0.9999999950169219 
0.9998726355631185 
0.0015083335514988324 
0.9283831388589313 
0.973972483778502 
0.9901351637693739 
1.5852557953776707e-5 
0.8796152181144945 
0.6654191703158494 
0.9918293556985827 
0.9097164392677802 
0.002197085334943198 
0.023016227464294197 
0.33685264255820524 
0.1919121894047516 
0.09656610194210534 
0.7685782271540813 
0.8445381973101563 
0.9752919153729103 
0.8498331500129851 
0.9686585347049409 
0.5194402045417885 
0.01604466719401158 
0.04157816254710604 
0.7062019783965918 
0.003835823916408335 
0.7714756493733763 
0.8381419266798144 
0.9937083553277292 
0.0003450231682702494 
0.999931678577642 
0.01473992973651038 
0.4682335584576841 
0.3950283359967502 
0.22030358168330097 
0.9292827962878896 
0.8955822903155185 
0.060912781267687954 
0.9989171654409793 
0.9891475251906896 
0.0993779043453099 
0.842799741279209 
0.002326299792754884 
0.9648493127888697 
0.15615350175211917 
0.9574755139208195 
0.4305510408646349 
1.3747668933632344e-6 
0.6666070654163359 
0.988222186720826 
0.8125342008467646 
0.693405886837649 
0.9999214635235792 
0.015008378144043218 
0.6737037443792321 
0.49298142366307085 
0.049038124684409115 
0.4683471332610202 
0.09454584055213303 
0.010966808596286322 
0.9839200199616384 
0.15350515914902715 
0.04061485750631622 
0.06733492364679262 
0.0914913280686172 
0.9999969980041975 
0.28645101942402856 
0.42941970517335176 
0.030065099541621156 
0.18730033287521441 
0.07671481592938335 
0.177880961913193 
0.3440755631487826 
0.9999995023323894 
0.9999530064316128 
0.4377440879169875 
0.12581555564476346 
0.40038503421764865 
0.6789493173075385 
0.590595788932293 
0.9936805920210374 
0.5949866833553816 
0.275389037982293 
0.357755950768221 
0.9999996090633745 
0.7722335989802055 
0.49602507797969864 
0.7452646751638143 
0.9902032441844962 
0.6455421351641507 
0.5478086873142027 
0.5513619037061795 
0.5525838657900173 
0.9289048693994955 
0.9998247026231333 
0.20608655014919022 
0.9999982705258131 
0.9991183388056216 
0.9461974630442529 
0.9752458061694013 
0.6055051644345887 
0.02833752554147972 
0.9925118750325932 
0.9477778596733207 
0.32442275796143943 
0.7588089182443731 
0.9990014553672795 
0.008688990066302736 
0.22993037509846015 
0.7306192249718568 
0.7921048702466149 
0.00014232634767263162 
0.7350224208167446 
0.8500622746232975 
0.6887564968753758 
0.9612287786094307 
0.5528880563312232 
0.7090819262321006 
0.970818664085783 
0.29659327228703447 
0.7217620889587416 
0.6580631352927964 
0.9016942269617403 
0.8518456514105688 
0.7806100013976438 
0.00016269023737010342 
0.6626414713846369 
0.5438791595421439 
0.9985839734693709 
0.3226913048007632 
0.9960902378708152 
0.9997631835484703 
0.6654465947892085 
0.09413039979475268 
0.9999918193068588 
0.003607941067527071 
0.9603124762759749 
0.879119512643945 
0.199366027325407 
0.07872213365646494 
0.004373971956352661 
0.17528252177923948 
0.8346246642460923 
0.9998377135023564 
0.9886634599024534 
0.9279282189874265 
0.15654639205471985 
0.5324829510951904 
4.7912655191235994e-5 
0.7012556785037853 
2.1215659372811034e-5 
0.8495603295129266 
0.050966588185189364 
0.9999941298228285 
0.06289304666991755 
0.2506736508397674 
0.8950075598114197 
0.9993955777803801 
0.2869365205145901 
0.0059435298953838455 
0.9959037847393094 
0.14904911533529228 
0.7628431204627926 
0.0782420798642089 
0.9940900502452832 
8.298859645472838e-9 
0.9759269069031411 
0.00020519857111017868 
0.223559095348587 
0.04987083168783901 
0.8030716127058735 
0.9999998856323165 
7.772861927375394e-7 
0.0014557750337845766 
0.0014332019250450061 
0.02204811764812495 
0.04282353151776351 
4.415110594842667e-5 
0.8587113146279332 
0.9999972727848573 
0.008404641310060763 
0.6558932825077335 
0.041906754981809936 
0.15446795584079903 
0.9505225955998255 
0.1883035311024505 
0.9509013611186078 
0.007263341179594573 
0.7188152717761969 
0.010877419610816426 
0.001538914248196849 
0.7851404759279372 
0.084118763890369 
0.9634232392605173 
0.7529177459848457 
0.9708503981789448 
0.000859421209686395 
3.526306048894995e-8 
0.8157197229761237 
0.4830714171015763 
0.9745858040363944 
0.9735494933686036 
0.883609939937153 
0.7050160753914201 
0.9983250056307547 
0.12662328057761546 
0.4043582629131043 
0.836765406056693 
0.3447498279786041 
0.9716858882392508 
0.9944067401633497 
0.7785982449142042 
0.9999621996460858 
0.13879127448286646 
0.6153716783750574 
0.9721545590298394 
0.9574763090250952 
0.8020760754929579 
0.886913571323331 
0.33292488240011686 
0.43907765901768075 
0.5176462612791053 
0.605429345436262 
0.9969481992361273 
0.9902148365355963 
0.6981748848520494 
0.2238247140748851 
2.054584960675424e-6 
0.9998782918504928 
0.9304355725665363 
0.3827085124900769 
0.48846134116445905 
0.9999999978507015 
0.17166925676124772 
0.1073459252742193 
0.008323657478918375 
0.9992058279529605 
0.9990011885421948 
0.3506118679148366 
0.6087520289803484 
0.8691072635482034 
2.958137203097605e-6 
0.9999999922911487 
0.91115061714823 
0.8556340676562475 
0.00017543804470360354 
0.5995413817532876 
0.6311669090091557 
0.0015754819484838274 
0.469196012036116 
0.11085080186470572 
0.008522714472287852 
0.5090339357877081 
0.1125839341645929 
0.20819403186906021 
0.3819907749445642 
0.7152477103745283 
0.9583253983307214 
0.18145604721326702 
0.9280890880325854 
0.02992663407999426 
0.010181914014134165 
0.5504847863267508 
0.364448407645128 
0.7083502702929986 
0.9392796104402891 
0.9975598429609784 
0.7720197865699121 
0.6912980871978827 
0.002039644737532662 
0.28817016756565444 
0.9059302127689502 
0.36737204610647606 
0.4638998129129559 
0.24803514962432097 
0.7460917118509097 
0.359690881837241 
0.5070544580082786 
0.00019334512244846918 
0.011367912578081826 
0.5768543917766433 
0.8471415147697139 
0.32568852435940376 
0.018885548249716187 
0.9995526669037206 
4.645903256314449e-5 
5.3631678333794465e-6 
0.9998412196851906 
0.8534427454885164 
0.21020919164075028 
0.7748835588894961 
0.0816199093315817 
0.05578220068547796 
0.606609349732243 
0.8499553112602807 
0.9145565874818663 
0.7690854474592276 
0.3924318995397718 
0.9938201905945124 
0.21971356889283816 
0.8884065191798787 
0.2286690382393454 
0.006898028919725836 
0.04022766542361375 
0.739141808563939 
0.8266569055759116 
0.6153042849408857 
0.010473794568717072 
0.3195945287690171 
0.9858979204505353 
0.43936250063702087 
0.38491939746346787 
0.3673350232095485 
0.7074405176043836 
0.03604274537803903 
0.038458787085236035 
0.008723310383895351 
0.6204488238856802 
0.99709202364165 
0.05086216470579663 
0.38949467103490065 
0.8782535110683629 
0.6525323688239971 
0.1311780571518809 
0.00010139138859855277 
0.5602367390999391 
0.48968253572688963 
0.9995401560266743 
0.9998297521745274 
0.0012718082852669396 
0.9999999703996824 
0.9970755241029725 
0.9092355492441904 
0.8505831459162465 
0.9964707770524909 
0.5859476152479048 
0.573703994388517 
0.1146326454743015 
0.714450472038444 
0.9999790387274204 
0.8556805854994457 
0.999998585222225 
0.009501928468328652 
0.14643350397115792 
0.9199282696252756 
0.9990946131140899 
0.2620576673503699 
0.858566988768313 
0.49018855859383564 
0.7120906007540083 