# vtk DataFile Version 3.0 
Unstructured Grid 
ASCII 
DATASET UNSTRUCTURED_GRID
POINTS 18783 float 
0.5 0 0  
1 0 0  
1 1 0  
0 1 0  
0 0.5 0  
0.5 0.5 0  
0.5125 0 0  
0.525 0 0  
0.5375 0 0  
0.55 0 0  
0.5625 0 0  
0.575 0 0  
0.5875 0 0  
0.6 0 0  
0.6125 0 0  
0.625 0 0  
0.6375 0 0  
0.65 0 0  
0.6625 0 0  
0.675 0 0  
0.6875 0 0  
0.7 0 0  
0.7125 0 0  
0.725 0 0  
0.7375 0 0  
0.75 0 0  
0.7625 0 0  
0.775 0 0  
0.7875 0 0  
0.8 0 0  
0.8125 0 0  
0.825 0 0  
0.8375 0 0  
0.85 0 0  
0.8625 0 0  
0.875 0 0  
0.8875 0 0  
0.9 0 0  
0.9125 0 0  
0.925 0 0  
0.9375 0 0  
0.95 0 0  
0.9625 0 0  
0.975 0 0  
0.9875 0 0  
0.50625 0 0  
0.51875 0 0  
0.53125 0 0  
0.54375 0 0  
0.55625 0 0  
0.56875 0 0  
0.58125 0 0  
0.59375 0 0  
0.60625 0 0  
0.61875 0 0  
0.63125 0 0  
0.64375 0 0  
0.65625 0 0  
0.66875 0 0  
0.68125 0 0  
0.69375 0 0  
0.70625 0 0  
0.71875 0 0  
0.73125 0 0  
0.74375 0 0  
0.75625 0 0  
0.76875 0 0  
0.78125 0 0  
0.79375 0 0  
0.80625 0 0  
0.81875 0 0  
0.83125 0 0  
0.84375 0 0  
0.85625 0 0  
0.86875 0 0  
0.88125 0 0  
0.89375 0 0  
0.90625 0 0  
0.91875 0 0  
0.93125 0 0  
0.94375 0 0  
0.95625 0 0  
0.96875 0 0  
0.98125 0 0  
0.99375 0 0  
1 0.0125 0  
1 0.025 0  
1 0.0375 0  
1 0.05 0  
1 0.0625 0  
1 0.075 0  
1 0.0875 0  
1 0.1 0  
1 0.1125 0  
1 0.125 0  
1 0.1375 0  
1 0.15 0  
1 0.1625 0  
1 0.175 0  
1 0.1875 0  
1 0.2 0  
1 0.2125 0  
1 0.225 0  
1 0.2375 0  
1 0.25 0  
1 0.2625 0  
1 0.275 0  
1 0.2875 0  
1 0.3 0  
1 0.3125 0  
1 0.325 0  
1 0.3375 0  
1 0.35 0  
1 0.3625 0  
1 0.375 0  
1 0.3875 0  
1 0.4 0  
1 0.4125 0  
1 0.425 0  
1 0.4375 0  
1 0.45 0  
1 0.4625 0  
1 0.475 0  
1 0.4875 0  
1 0.5 0  
1 0.5125 0  
1 0.525 0  
1 0.5375 0  
1 0.55 0  
1 0.5625 0  
1 0.575 0  
1 0.5875 0  
1 0.6 0  
1 0.6125 0  
1 0.625 0  
1 0.6375 0  
1 0.65 0  
1 0.6625 0  
1 0.675 0  
1 0.6875 0  
1 0.7 0  
1 0.7125 0  
1 0.725 0  
1 0.7375 0  
1 0.75 0  
1 0.7625 0  
1 0.775 0  
1 0.7875 0  
1 0.8 0  
1 0.8125 0  
1 0.825 0  
1 0.8375 0  
1 0.85 0  
1 0.8625 0  
1 0.875 0  
1 0.8875 0  
1 0.9 0  
1 0.9125 0  
1 0.925 0  
1 0.9375 0  
1 0.95 0  
1 0.9625 0  
1 0.975 0  
1 0.9875 0  
1 0.00625 0  
1 0.01875 0  
1 0.03125 0  
1 0.04375 0  
1 0.05625 0  
1 0.06875 0  
1 0.08125 0  
1 0.09375 0  
1 0.10625 0  
1 0.11875 0  
1 0.13125 0  
1 0.14375 0  
1 0.15625 0  
1 0.16875 0  
1 0.18125 0  
1 0.19375 0  
1 0.20625 0  
1 0.21875 0  
1 0.23125 0  
1 0.24375 0  
1 0.25625 0  
1 0.26875 0  
1 0.28125 0  
1 0.29375 0  
1 0.30625 0  
1 0.31875 0  
1 0.33125 0  
1 0.34375 0  
1 0.35625 0  
1 0.36875 0  
1 0.38125 0  
1 0.39375 0  
1 0.40625 0  
1 0.41875 0  
1 0.43125 0  
1 0.44375 0  
1 0.45625 0  
1 0.46875 0  
1 0.48125 0  
1 0.49375 0  
1 0.50625 0  
1 0.51875 0  
1 0.53125 0  
1 0.54375 0  
1 0.55625 0  
1 0.56875 0  
1 0.58125 0  
1 0.59375 0  
1 0.60625 0  
1 0.61875 0  
1 0.63125 0  
1 0.64375 0  
1 0.65625 0  
1 0.66875 0  
1 0.68125 0  
1 0.69375 0  
1 0.70625 0  
1 0.71875 0  
1 0.73125 0  
1 0.74375 0  
1 0.75625 0  
1 0.76875 0  
1 0.78125 0  
1 0.79375 0  
1 0.80625 0  
1 0.81875 0  
1 0.83125 0  
1 0.84375 0  
1 0.85625 0  
1 0.86875 0  
1 0.88125 0  
1 0.89375 0  
1 0.90625 0  
1 0.91875 0  
1 0.93125 0  
1 0.94375 0  
1 0.95625 0  
1 0.96875 0  
1 0.98125 0  
1 0.99375 0  
0.9875 1 0  
0.975 1 0  
0.9625 1 0  
0.95 1 0  
0.9375 1 0  
0.925 1 0  
0.9125 1 0  
0.9 1 0  
0.8875 1 0  
0.875 1 0  
0.8625 1 0  
0.85 1 0  
0.8375 1 0  
0.825 1 0  
0.8125 1 0  
0.8 1 0  
0.7875 1 0  
0.775 1 0  
0.7625 1 0  
0.75 1 0  
0.7375 1 0  
0.725 1 0  
0.7125 1 0  
0.7 1 0  
0.6875 1 0  
0.675 1 0  
0.6625 1 0  
0.65 1 0  
0.6375 1 0  
0.625 1 0  
0.6125 1 0  
0.6 1 0  
0.5875 1 0  
0.575 1 0  
0.5625 1 0  
0.55 1 0  
0.5375 1 0  
0.525 1 0  
0.5125 1 0  
0.5 1 0  
0.4875 1 0  
0.475 1 0  
0.4625 1 0  
0.45 1 0  
0.4375 1 0  
0.425 1 0  
0.4125 1 0  
0.4 1 0  
0.3875 1 0  
0.375 1 0  
0.3625 1 0  
0.35 1 0  
0.3375 1 0  
0.325 1 0  
0.3125 1 0  
0.3 1 0  
0.2875 1 0  
0.275 1 0  
0.2625 1 0  
0.25 1 0  
0.2375 1 0  
0.225 1 0  
0.2125 1 0  
0.2 1 0  
0.1875 1 0  
0.175 1 0  
0.1625 1 0  
0.15 1 0  
0.1375 1 0  
0.125 1 0  
0.1125 1 0  
0.1 1 0  
0.0875 1 0  
0.075 1 0  
0.0625 1 0  
0.05 1 0  
0.0375 1 0  
0.025 1 0  
0.0125 1 0  
0.99375 1 0  
0.98125 1 0  
0.96875 1 0  
0.95625 1 0  
0.94375 1 0  
0.93125 1 0  
0.91875 1 0  
0.90625 1 0  
0.89375 1 0  
0.88125 1 0  
0.86875 1 0  
0.85625 1 0  
0.84375 1 0  
0.83125 1 0  
0.81875 1 0  
0.80625 1 0  
0.79375 1 0  
0.78125 1 0  
0.76875 1 0  
0.75625 1 0  
0.74375 1 0  
0.73125 1 0  
0.71875 1 0  
0.70625 1 0  
0.69375 1 0  
0.68125 1 0  
0.66875 1 0  
0.65625 1 0  
0.64375 1 0  
0.63125 1 0  
0.61875 1 0  
0.60625 1 0  
0.59375 1 0  
0.58125 1 0  
0.56875 1 0  
0.55625 1 0  
0.54375 1 0  
0.53125 1 0  
0.51875 1 0  
0.50625 1 0  
0.49375 1 0  
0.48125 1 0  
0.46875 1 0  
0.45625 1 0  
0.44375 1 0  
0.43125 1 0  
0.41875 1 0  
0.40625 1 0  
0.39375 1 0  
0.38125 1 0  
0.36875 1 0  
0.35625 1 0  
0.34375 1 0  
0.33125 1 0  
0.31875 1 0  
0.30625 1 0  
0.29375 1 0  
0.28125 1 0  
0.26875 1 0  
0.25625 1 0  
0.24375 1 0  
0.23125 1 0  
0.21875 1 0  
0.20625 1 0  
0.19375 1 0  
0.18125 1 0  
0.16875 1 0  
0.15625 1 0  
0.14375 1 0  
0.13125 1 0  
0.11875 1 0  
0.10625 1 0  
0.09375 1 0  
0.08125 1 0  
0.06875 1 0  
0.05625 1 0  
0.04375 1 0  
0.03125 1 0  
0.01875 1 0  
0.00625 1 0  
0 0.9875 0  
0 0.975 0  
0 0.9625 0  
0 0.95 0  
0 0.9375 0  
0 0.925 0  
0 0.9125 0  
0 0.9 0  
0 0.8875 0  
0 0.875 0  
0 0.8625 0  
0 0.85 0  
0 0.8375 0  
0 0.825 0  
0 0.8125 0  
0 0.8 0  
0 0.7875 0  
0 0.775 0  
0 0.7625 0  
0 0.75 0  
0 0.7375 0  
0 0.725 0  
0 0.7125 0  
0 0.7 0  
0 0.6875 0  
0 0.675 0  
0 0.6625 0  
0 0.65 0  
0 0.6375 0  
0 0.625 0  
0 0.6125 0  
0 0.6 0  
0 0.5875 0  
0 0.575 0  
0 0.5625 0  
0 0.55 0  
0 0.5375 0  
0 0.525 0  
0 0.5125 0  
0 0.99375 0  
0 0.98125 0  
0 0.96875 0  
0 0.95625 0  
0 0.94375 0  
0 0.93125 0  
0 0.91875 0  
0 0.90625 0  
0 0.89375 0  
0 0.88125 0  
0 0.86875 0  
0 0.85625 0  
0 0.84375 0  
0 0.83125 0  
0 0.81875 0  
0 0.80625 0  
0 0.79375 0  
0 0.78125 0  
0 0.76875 0  
0 0.75625 0  
0 0.74375 0  
0 0.73125 0  
0 0.71875 0  
0 0.70625 0  
0 0.69375 0  
0 0.68125 0  
0 0.66875 0  
0 0.65625 0  
0 0.64375 0  
0 0.63125 0  
0 0.61875 0  
0 0.60625 0  
0 0.59375 0  
0 0.58125 0  
0 0.56875 0  
0 0.55625 0  
0 0.54375 0  
0 0.53125 0  
0 0.51875 0  
0 0.50625 0  
0.0125 0.5 0  
0.025 0.5 0  
0.0375 0.5 0  
0.05 0.5 0  
0.0625 0.5 0  
0.075 0.5 0  
0.0875 0.5 0  
0.1 0.5 0  
0.1125 0.5 0  
0.125 0.5 0  
0.1375 0.5 0  
0.15 0.5 0  
0.1625 0.5 0  
0.175 0.5 0  
0.1875 0.5 0  
0.2 0.5 0  
0.2125 0.5 0  
0.225 0.5 0  
0.2375 0.5 0  
0.25 0.5 0  
0.2625 0.5 0  
0.275 0.5 0  
0.2875 0.5 0  
0.3 0.5 0  
0.3125 0.5 0  
0.325 0.5 0  
0.3375 0.5 0  
0.35 0.5 0  
0.3625 0.5 0  
0.375 0.5 0  
0.3875 0.5 0  
0.4 0.5 0  
0.4125 0.5 0  
0.425 0.5 0  
0.4375 0.5 0  
0.45 0.5 0  
0.4625 0.5 0  
0.475 0.5 0  
0.4875 0.5 0  
0.00625 0.5 0  
0.01875 0.5 0  
0.03125 0.5 0  
0.04375 0.5 0  
0.05625 0.5 0  
0.06875 0.5 0  
0.08125 0.5 0  
0.09375 0.5 0  
0.10625 0.5 0  
0.11875 0.5 0  
0.13125 0.5 0  
0.14375 0.5 0  
0.15625 0.5 0  
0.16875 0.5 0  
0.18125 0.5 0  
0.19375 0.5 0  
0.20625 0.5 0  
0.21875 0.5 0  
0.23125 0.5 0  
0.24375 0.5 0  
0.25625 0.5 0  
0.26875 0.5 0  
0.28125 0.5 0  
0.29375 0.5 0  
0.30625 0.5 0  
0.31875 0.5 0  
0.33125 0.5 0  
0.34375 0.5 0  
0.35625 0.5 0  
0.36875 0.5 0  
0.38125 0.5 0  
0.39375 0.5 0  
0.40625 0.5 0  
0.41875 0.5 0  
0.43125 0.5 0  
0.44375 0.5 0  
0.45625 0.5 0  
0.46875 0.5 0  
0.48125 0.5 0  
0.49375 0.5 0  
0.5 0.4875 0  
0.5 0.475 0  
0.5 0.4625 0  
0.5 0.45 0  
0.5 0.4375 0  
0.5 0.425 0  
0.5 0.4125 0  
0.5 0.4 0  
0.5 0.3875 0  
0.5 0.375 0  
0.5 0.3625 0  
0.5 0.35 0  
0.5 0.3375 0  
0.5 0.325 0  
0.5 0.3125 0  
0.5 0.3 0  
0.5 0.2875 0  
0.5 0.275 0  
0.5 0.2625 0  
0.5 0.25 0  
0.5 0.2375 0  
0.5 0.225 0  
0.5 0.2125 0  
0.5 0.2 0  
0.5 0.1875 0  
0.5 0.175 0  
0.5 0.1625 0  
0.5 0.15 0  
0.5 0.1375 0  
0.5 0.125 0  
0.5 0.1125 0  
0.5 0.1 0  
0.5 0.0875 0  
0.5 0.075 0  
0.5 0.0625 0  
0.5 0.05 0  
0.5 0.0375 0  
0.5 0.025 0  
0.5 0.0125 0  
0.5 0.49375 0  
0.5 0.48125 0  
0.5 0.46875 0  
0.5 0.45625 0  
0.5 0.44375 0  
0.5 0.43125 0  
0.5 0.41875 0  
0.5 0.40625 0  
0.5 0.39375 0  
0.5 0.38125 0  
0.5 0.36875 0  
0.5 0.35625 0  
0.5 0.34375 0  
0.5 0.33125 0  
0.5 0.31875 0  
0.5 0.30625 0  
0.5 0.29375 0  
0.5 0.28125 0  
0.5 0.26875 0  
0.5 0.25625 0  
0.5 0.24375 0  
0.5 0.23125 0  
0.5 0.21875 0  
0.5 0.20625 0  
0.5 0.19375 0  
0.5 0.18125 0  
0.5 0.16875 0  
0.5 0.15625 0  
0.5 0.14375 0  
0.5 0.13125 0  
0.5 0.11875 0  
0.5 0.10625 0  
0.5 0.09375 0  
0.5 0.08125 0  
0.5 0.06875 0  
0.5 0.05625 0  
0.5 0.04375 0  
0.5 0.03125 0  
0.5 0.01875 0  
0.5 0.00625 0  
0.70578957 0.7094341 0  
0.7463723 0.34565625 0  
0.25385702 0.750127 0  
0.48557416 0.7713524 0  
0.8002799 0.5348534 0  
0.81875014 0.18134832 0  
0.8280492 0.8270444 0  
0.66115344 0.20505601 0  
0.64603454 0.5638432 0  
0.6282162 0.8438834 0  
0.37864566 0.6594725 0  
0.15309067 0.6463793 0  
0.14548306 0.8542381 0  
0.85117507 0.6718535 0  
0.36238912 0.8505561 0  
0.5312455 0.63971317 0  
0.637534 0.42276663 0  
0.8651332 0.41369006 0  
0.87102884 0.2975294 0  
0.2685929 0.6189844 0  
0.51986337 0.87788683 0  
0.5858771 0.72613704 0  
0.7255139 0.11337523 0  
0.6131053 0.31254515 0  
0.72900665 0.8877081 0  
0.256033 0.8850171 0  
0.60799336 0.11058102 0  
0.11043627 0.74913275 0  
0.7409589 0.45320508 0  
0.8959665 0.103818156 0  
0.89765024 0.5794985 0  
0.73509526 0.6055131 0  
0.9001878 0.8967419 0  
0.3882737 0.75193083 0  
0.9051946 0.76277524 0  
0.7511694 0.24533194 0  
0.7413351 0.79115826 0  
0.44736946 0.59416837 0  
0.9041642 0.20250387 0  
0.6366763 0.6538867 0  
0.909618 0.4960632 0  
0.42941406 0.9108008 0  
0.5891503 0.49405563 0  
0.8111961 0.0880375 0  
0.08649514 0.5872034 0  
0.08727398 0.9146703 0  
0.8110372 0.9131976 0  
0.46290666 0.6922585 0  
0.80789304 0.7490745 0  
[...]
POINT_DATA 18783 
SCALARS fi float 
LOOKUP_TABLE default 
0.5000000000018601 
0.500000000002015 
6.439313181421973e-22 
1.9278472201933994e-12 
3.9384188527586294e-14 
2.7868794093952555e-11 
0.9999999999945853 
0.9999999999982183 
0.9999999999995337 
0.9999999999998319 
0.9999999999999333 
0.9999999999999779 
0.9999999999999912 
0.999999999999997 
0.9999999999999988 
0.9999999999999997 
1.0000000000000002 
1.0 
1.0000000000000002 
1.0000000000000002 
1.0 
0.9999999999999998 
0.9999999999999999 
1.0 
1.0 
1.0000000000000004 
1.0000000000000002 
1.0000000000000002 
1.0 
1.0000000000000002 
1.0 
1.0 
1.0 
1.0000000000000002 
1.0000000000000007 
0.9999999999999999 
0.9999999999999999 
0.9999999999999999 
0.9999999999999996 
0.9999999999999992 
0.999999999999995 
0.9999999999999862 
0.9999999999999261 
0.9999999999993813 
0.9999999999962718 
0.6429639387668649 
0.9683457452060845 
0.9829384507519286 
0.995579043948979 
0.9982581345467644 
0.99932182166941 
0.9997848575028402 
0.9999177100832569 
0.9999710408221365 
0.9999898012201757 
0.9999947509659717 
0.9999986663816417 
0.9999995463322638 
0.9999998333897322 
0.9999999243680127 
0.9999999741163003 
0.9999999911871157 
0.9999999970831893 
0.9999999992218807 
0.9999999997143891 
0.9999999998985355 
0.9999999999309218 
0.9999999999092184 
0.9999999998130885 
0.999999999541912 
0.9999999987496395 
0.9999999965463064 
0.9999999903436453 
0.9999999749787643 
0.9999999123590724 
0.9999997072404772 
0.9999986183393341 
0.9999970894789124 
0.999990476724012 
0.999971811997353 
0.9999434958023589 
0.9993278157209747 
0.9990193032144203 
1.0466461503259186 
0.6530448791316127 
2.1537367539315807e-11 
1.594370914651884e-11 
1.1908102647527543e-11 
1.00018921725941e-11 
9.066962807762444e-12 
7.412585129923161e-12 
6.72475003684693e-12 
6.168014214025901e-12 
5.715125163173304e-12 
5.1525023254103024e-12 
3.8572095825909024e-12 
3.6250878065041117e-12 
3.6943220758189415e-12 
3.1220822715907756e-12 
2.7327138018860378e-12 
2.4105732422953217e-12 
2.1230524205093408e-12 
1.8652816227123408e-12 
1.644134520213156e-12 
1.4575762713635959e-12 
1.3461890885619404e-12 
1.1182098207209612e-12 
9.32636607620476e-13 
8.43167133744571e-13 
7.436498061788046e-13 
6.054927424792385e-13 
4.957000250964226e-13 
4.23171178074233e-13 
3.627845264004154e-13 
2.9888305081038323e-13 
2.4902227295471575e-13 
2.12502693886881e-13 
1.775066943768072e-13 
1.3465721389607369e-13 
1.1074032791071987e-13 
9.07547259634792e-14 
7.719064035025381e-14 
5.904841324136087e-14 
4.476342400663394e-14 
3.5818161497137955e-14 
2.8298590277002573e-14 
2.2694109519111485e-14 
1.7298064485841958e-14 
1.204089459891266e-14 
9.177038389901208e-15 
7.03413646397419e-15 
5.438130839158525e-15 
4.006949291608577e-15 
3.0276865261319735e-15 
2.021847108384941e-15 
1.5269596452382332e-15 
1.0700837718202194e-15 
7.488439227314404e-16 
5.404451475193949e-16 
3.440021695724865e-16 
2.780896231702352e-16 
1.7607375813034158e-16 
1.2216169795532634e-16 
7.41581555120164e-17 
5.801059873809173e-17 
3.8256065962233604e-17 
2.2400499556943366e-17 
1.483942827651804e-17 
9.700812000035812e-18 
6.0719074820729405e-18 
3.802617968785872e-18 
2.3756416093968696e-18 
1.4472349665690547e-18 
9.107400539206154e-19 
5.629730525910375e-19 
3.027359001923752e-19 
2.251843100813087e-19 
1.1641243915575147e-19 
6.910306058011312e-20 
4.221703023686322e-20 
1.808235316901508e-20 
1.1620076312474028e-20 
6.020975101404864e-21 
3.958643638652779e-21 
0.5483363501729086 
0.2121947964410667 
0.20159784712689688 
0.17708177315812398 
0.14856438882796738 
0.12972338637331796 
0.12329247866680214 
0.10655834053304457 
0.08833468645492239 
0.06811946900591959 
0.06368337914864561 
0.07809451172139713 
0.06399568479630952 
0.04987904652072642 
0.04462605085351026 
0.04072094381998638 
0.037094725679014555 
0.03379733035740047 
0.030605253661807493 
0.02709211578203266 
0.023033289858846187 
0.016823346224586134 
0.01577468832095145 
0.01489254219546658 
0.010856586978098657 
0.00853317276153905 
0.00819753536309205 
0.007479751538960649 
0.00637195526569465 
0.005358643401237 
0.0046470881115064444 
0.003752112029935301 
0.0027653107498283847 
0.002408760921040304 
0.002132605833767448 
0.001765885491577485 
0.0013560996529783794 
0.0008638543887672423 
0.0008099068800854747 
0.0006770508911338213 
0.0005165570024225673 
0.0003751370596775915 
0.00023492739751922702 
0.0002006004382865099 
0.00017787705833114973 
0.0001406931149467783 
0.00010861116364389749 
7.052445122317886e-5 
4.58428337445083e-5 
3.743361736889073e-5 
2.6063294422346245e-5 
1.8531744213609466e-5 
1.3909445893272e-5 
9.893918084543191e-6 
7.751365816596752e-6 
5.1116679288839105e-6 
3.3305738886033124e-6 
2.3667444298548225e-6 
1.7562277121197755e-6 
1.2253328157320887e-6 
6.129553931615102e-7 
4.1762510130519765e-7 
3.0926055278780406e-7 
1.9164197987125536e-7 
1.1996205035919408e-7 
7.926197818933253e-8 
5.000883557574836e-8 
3.1037405682817924e-8 
2.014372220322294e-8 
1.170805528812991e-8 
7.861703694090874e-9 
4.334255911968841e-9 
2.2415215757550625e-9 
1.3506632748222196e-9 
5.904615796783043e-10 
3.004024204161792e-10 
2.0367762949221838e-10 
1.3574058540841648e-10 
8.547313804289082e-11 
1.072065242218378e-11 
8.881169734493032e-21 
4.768064460866032e-20 
1.945160364941406e-19 
5.842356888271569e-19 
2.0126894733861544e-18 
4.87133615910669e-18 
1.3565526373471708e-17 
2.651302774213288e-17 
5.849891060949924e-17 
1.003995235554738e-16 
2.111352719614741e-16 
4.0570995298917403e-16 
7.442311502075839e-16 
1.2734401091783896e-15 
2.2669261096661358e-15 
3.572321681132415e-15 
6.1749766684498e-15 
8.762924265307195e-15 
1.340956087262542e-14 
2.029629878562883e-14 
3.34423553244576e-14 
4.356339128907776e-14 
6.038355763152034e-14 
8.506557960225922e-14 
9.997321739725779e-14 
1.483357339132776e-13 
1.978108411058582e-13 
2.390273606746481e-13 
2.9204362948189166e-13 
3.4473636482570066e-13 
5.205156516501419e-13 
5.82704028501759e-13 
6.60495415508206e-13 
8.235271045968611e-13 
1.0016894363585576e-12 
1.0930824701712458e-12 
1.2325327188891913e-12 
1.4232582355631044e-12 
1.6319437183364567e-12 
1.85709763209013e-12 
2.093552655697868e-12 
2.454335877980633e-12 
2.627926747089063e-12 
2.8085738774527507e-12 
2.9556466958686577e-12 
3.15994889809936e-12 
3.389993503940261e-12 
3.629286006523688e-12 
4.051095025271207e-12 
4.027636592951239e-12 
4.3001870633496906e-12 
4.5661546929845594e-12 
4.72242490987908e-12 
4.801051959338334e-12 
4.971875798875231e-12 
5.19694933110295e-12 
5.453511042201335e-12 
5.026924873751429e-12 
5.1699256394310865e-12 
5.384727707709626e-12 
5.789363704895522e-12 
5.587159197722163e-12 
5.444591477269556e-12 
5.134588209480037e-12 
6.130618148843751e-12 
5.296004487239408e-12 
5.558780918669994e-12 
5.833117609868961e-12 
4.8030325468799004e-12 
4.963912876744535e-12 
5.130798918885273e-12 
4.676689619937631e-12 
4.461872185548745e-12 
4.6730591810139975e-12 
4.8787783862695695e-12 
4.415609491199227e-12 
4.132191396878556e-12 
3.644181989154519e-12 
3.7370036282142086e-12 
6.774509931995777e-11 
4.76336627055099e-10 
1.9364573720611242e-9 
6.878520732171507e-9 
1.7610892303210832e-8 
4.661426436449273e-8 
1.1160420974340449e-7 
2.483092049708146e-7 
6.066615163233476e-7 
1.3654130792859723e-6 
2.9105872051843057e-6 
5.332155172212898e-6 
9.536520978481302e-6 
1.6763454926792033e-5 
2.925245285289185e-5 
4.6196301089266335e-5 
7.212774134334787e-5 
0.00011720215771041793 
0.00018875217948168238 
0.00027935781719034744 
0.0003843895029935869 
0.0004947494862473605 
0.0007269506072714537 
0.0010561992632864448 
0.0014919136513988113 
0.0020654714013726484 
0.0025330891570512198 
0.0031768126690444654 
0.00435811672078674 
0.0059834598297888 
0.006869422494902051 
0.0073444155452004715 
0.009496009848837448 
0.012427976181753236 
0.013334428486519917 
0.015305987730897965 
0.020080243618960564 
0.02345204603149732 
0.02650816394638299 
0.029417038487385385 
0.0322396933052362 
0.034683941341116645 
0.03439573598031578 
0.0380571629761638 
0.04515850193555684 
0.050969132484733067 
0.05585825495923479 
0.05969418508422564 
0.06151419674678497 
0.06327661147446145 
0.0688111562293822 
0.07065792167010748 
0.07205350592340187 
0.07534320289983776 
0.07936293354138803 
0.07985587407969899 
0.07636291190024534 
0.08398080898054647 
0.09262729996095749 
0.09377164007321852 
0.09068575365023852 
0.0799749764636693 
0.0840142827140626 
0.09423536266149934 
0.08631999112994877 
0.07788456461772374 
0.0827759787022961 
0.07159404163184074 
0.06528417777377181 
0.08650231830429492 
0.07748800225538292 
0.07666226580199985 
0.0812099077739883 
0.08121816444194241 
0.06013434915122855 
0.054775532939045454 
0.048761724903352684 
0.057112847405233674 
0.06251928404696253 
0.03388867638794672 
6.835726961938393e-12 
1.1386277115942469e-11 
1.6954075069601614e-11 
1.780944236800843e-11 
2.204703054771309e-11 
2.1930366131321902e-11 
2.2959349588605684e-11 
2.358259574719549e-11 
2.5428105267850648e-11 
2.6718005403217734e-11 
2.707630546956569e-11 
2.595365287743957e-11 
2.5786671621561665e-11 
2.572707757293135e-11 
2.6649277565908762e-11 
2.2503954778278378e-11 
2.450083469999514e-11 
2.2999249182720162e-11 
2.135610794982213e-11 
1.8912940710419775e-11 
1.7521202620972567e-11 
1.62661917374453e-11 
1.5107816076235895e-11 
1.1588935510147742e-11 
1.1566369863581648e-11 
9.453438679044998e-12 
8.028246131671695e-12 
6.937195756621878e-12 
5.1401925836533206e-12 
4.012371527192581e-12 
3.132912088458009e-12 
2.396416176993576e-12 
1.7946743126492222e-12 
1.330313806997206e-12 
1.0567040574337684e-12 
6.835327106750013e-13 
5.144017402226812e-13 
2.8810665874082087e-13 
1.4644823141238954e-13 
0.058755736420402625 
0.13428526364260868 
0.17989488323176778 
0.22096997577620572 
0.26112386405205634 
0.29994041724309467 
0.3435033917863266 
0.3749856128414032 
0.39071822117318483 
0.36948857612664404 
0.36987078646971266 
0.402141814090122 
0.4172866188663948 
0.4106203377255314 
0.392836457849976 
0.39791568250426496 
0.3991466217799762 
0.33291852325777294 
0.32695590567593885 
0.32739456909980624 
0.3103624736981351 
0.2693733161733439 
0.22084995268794816 
0.22017028905882638 
0.18726116014314848 
0.1511751210779181 
0.12509693389323448 
0.09374990168994643 
0.08608792842556294 
0.07590106987134514 
0.061441116597996365 
0.04824645578483276 
0.03698936687453802 
0.02732429276716705 
0.018414445672925 
0.01165997483641032 
0.007478616878502578 
0.004762497681219133 
0.002849249620088625 
0.001140725574980347 
8.643954015260436e-14 
9.125782476818527e-14 
1.0029184613204679e-13 
8.39015523162197e-14 
7.385688619526817e-14 
7.610436111437828e-14 
5.9447346346579e-14 
6.308519667352966e-14 
5.635940943280436e-14 
5.203512180117465e-14 
4.927007371595183e-14 
4.7615106299828644e-14 
4.917310801932418e-14 
4.499231646043473e-14 
4.563697688666223e-14 
4.556473950727798e-14 
4.5238834686987976e-14 
4.476582129186817e-14 
4.994632836502394e-14 
4.918997472761345e-14 
5.245387437674029e-14 
5.162241977971518e-14 
6.122155481587479e-14 
6.729263109270526e-14 
6.928625412048293e-14 
8.652972133034086e-14 
9.514076296806914e-14 
1.0717814891661478e-13 
1.2524364936976796e-13 
1.5371559358935488e-13 
2.076967753524968e-13 
2.6093340321780016e-13 
3.642257535750527e-13 
4.496877257650485e-13 
6.828983305127804e-13 
8.503787140831343e-13 
1.4441190088258335e-12 
2.3783400109690278e-12 
5.269238511534684e-12 
0.0008842560043490236 
0.0015921789425559117 
0.001035874546797324 
0.001352430649808554 
0.0013276230665583153 
0.0011446448855431564 
0.001220847490563521 
0.0011071411902234113 
0.0009926124839822956 
0.0009930610968232505 
0.0009441880619620161 
0.0008478364287178133 
0.0007386618430405801 
0.0007083653348099538 
0.0007371378951437263 
0.0006489031895616871 
0.0007180326388955582 
0.0007776410454940683 
0.0007189413416518592 
0.0007715212919191624 
0.0008469041308749337 
0.0009296158395236887 
0.0010472270060200568 
0.0009627961738986737 
0.0011060609346793648 
0.001310598587464226 
0.0014500470120838052 
0.0018367270037048169 
0.002183847316282875 
0.0022946068991024737 
0.0023553584808301666 
0.002759357337549838 
0.00359243612377728 
0.005379611402490994 
0.008940929082303 
0.014235452026263968 
0.019856836931990744 
0.026763800047455346 
0.04471286408494362 
0.09535684807884454 
2.0514949729923733e-11 
2.242473281864147e-11 
2.144322999797321e-11 
2.047934839114031e-11 
2.0197837210554528e-11 
2.0415772568862513e-11 
1.8461249856942103e-11 
1.801151959561978e-11 
1.767354454927581e-11 
1.7836518862025276e-11 
1.7242481674271854e-11 
1.6113647478211748e-11 
1.5990365000060738e-11 
1.3982801328487313e-11 
1.502958987172276e-11 
1.3333352501884478e-11 
1.2479130738903816e-11 
1.3236889234625372e-11 
1.2123368026863309e-11 
1.1523093074601902e-11 
1.1784068251264243e-11 
1.066624676896012e-11 
9.829432917225274e-12 
9.521955067819247e-12 
9.25032516950955e-12 
9.651029310236216e-12 
8.885671523222235e-12 
8.622336280345849e-12 
8.312847111623673e-12 
8.664442466632065e-12 
8.057870059476495e-12 
8.103641917460428e-12 
8.613728487772886e-12 
7.738221281524436e-12 
9.085984166551929e-12 
1.013887010495616e-11 
1.1237423024775239e-11 
1.2737281469393386e-11 
1.8760309741888264e-11 
0.3546351884636926 
0.35860171595350276 
0.3197503911362424 
0.3352792033604945 
0.28618705740887174 
0.2987685003629251 
0.30507327074238383 
0.3018528130916433 
0.2843626478802805 
0.2588206364682908 
0.22316194850671128 
0.24093682582856552 
0.2455545091725237 
0.24830552234412837 
0.22452486041797157 
0.21281875636274308 
0.23685004009532767 
0.20053515080091627 
0.18781362502300364 
0.18836330284931188 
0.17625745284708444 
0.15611404302229448 
0.191040513163477 
0.1819114994352159 
0.16528348841000734 
0.14380673871875002 
0.138676175031687 
0.14072474782378389 
0.13711809336359773 
0.12958708043035763 
0.1293936036495696 
0.13324348181944015 
0.1277988287432557 
0.13693519995370873 
0.12819204994701014 
0.11864174098978228 
0.1253373119521178 
0.16030529243710498 
0.20509919825660516 
0.47623207939701834 
0.34804666129579465 
0.9926916393401417 
0.8154634398200117 
0.7245769804697083 
0.5484741106380666 
0.9990470011261964 
0.004580716197305838 
0.9990647597949038 
0.9227970358641829 
0.17159700680958934 
0.7819581345810546 
0.2381697705161859 
0.7794506337173451 
0.05276844564928924 
0.6595769911050174 
0.9376976071477724 
0.9968247896975772 
0.5923067155693927 
0.8610270451178867 
0.24037708768458316 
0.2888824423096663 
0.657299270393626 
0.9999967783867395 
0.9928958221274208 
0.016210806338483406 
0.6581443792816605 
0.9918990962011646 
0.6654732021189387 
0.9348086880991522 
0.9945367450558901 
0.06222809749000339 
0.5928224272318874 
2.6945382634250734e-5 
0.8753990547588849 
0.0011463646128447092 
0.9996402276861105 
0.07758186561628974 
0.749846823665551 
0.8983641610151305 
0.7530538946630974 
0.1352652681125593 
0.3443132088925211 
0.9922874262579254 
0.9999954006993262 
0.06117561567015455 
0.6421684289316888 
0.000846169872587779 
0.9169074663760239 
0.04091358669488452 
0.9586926729463832 
0.2003904235765119 
0.09349109385181921 
0.8523487228447817 
0.05902719273693466 
0.6894790105945586 
0.3824524646237954 
0.6035087848616313 
0.4416281900821754 
0.2782896439522371 
0.5978496464672349 
0.45767295081778675 
0.5975509859691072 
0.8227785443922312 
0.9996486941264829 
0.9708144779766164 
0.34119090923064377 
0.7895428283072907 
0.8157137899317386 
0.9044594681233641 
0.9802516488363827 
0.2642555144364324 
0.006389415045555629 
0.23356000304805868 
0.028638301551630014 
5.0500143672491216e-5 
0.7221513936979622 
0.9978487970603842 
0.9999500120401491 
0.9790096420657732 
0.8286936035131834 
0.9920673370662868 
0.9999747832531128 
0.1747874246862617 
0.5425402225047001 
0.9187335432904074 
0.9997753548008778 
0.08729298793847405 
0.8726203860875694 
0.5029600121595388 
0.791716438532351 
0.9557870260600885 
0.9153332797288881 
0.8497419339689906 
0.9847489691782667 
0.1780699596494746 
0.0009526060655217856 
0.9713155860977895 
0.04973241865294871 
0.8243984779766139 
0.22689242553404101 
0.9999999558293038 
0.26363630140676586 
0.002061658580700294 
0.9874264486608972 
0.9234384301241645 
0.028542674020901198 
0.022830489549061566 
4.0324736696864564e-7 
0.014774518509449028 
0.5376620485015864 
0.31785421056908747 
0.9999716819023552 
0.5824779705096417 
0.3907794650394757 
0.46509585403415526 
0.9892438370078298 
0.24351040830671986 
4.4074394919996165e-5 
0.9977039939821388 
0.12930031012329823 
0.6961831316858521 
0.5281710347738329 
0.2347629389420324 
0.0957234778549037 
0.8671616937420766 
0.9831111315369568 
0.43568739153833136 
0.8641826181059473 
0.6724816696400094 
0.4507366281746713 
0.9992137346829537 
0.15226323411519843 
0.7534806144268172 
0.7291834933990611 
0.9999859039304771 
0.8098295005915473 
0.006657686389512763 
0.9053232125345381 
0.9973334877137144 
0.7984865641812317 
0.9840674674497387 
0.9920115774968662 
0.00045351611575833515 
0.07444322909683795 
0.6277180676799131 
0.006974059778921828 
0.012468389734781166 
0.941845916222473 
0.7800590611435049 
0.8520672421807695 
0.46009281317900363 
2.1165238881032497e-6 
6.333097709833984e-5 
0.6318631433863556 
0.9817220325177649 
0.9998567053518647 
0.275322109650493 
0.7950814048225069 
0.9435495393601864 
0.9094597008737342 
0.025153462951839504 
0.5119702023382444 
0.029713309937707166 
0.4164890002141343 
0.005493852114170079 
0.022788852739347207 
0.9999480034619254 
0.6175216229781524 
0.9986637005119375 
0.069180155563667 
0.5088285217035311 
0.23240948883989057 
0.18790859764853188 
0.9264908575449377 
0.9998449709888302 
0.39244929617183255 
0.6990668520785412 
0.7679872213211645 
0.8787776795984288 
0.999413903949824 
0.027473186877554165 
0.1688840105796702 
0.7536247255293956 
0.4875243565114411 
0.04621503469610429 
0.49757246234406277 
0.47556625095648347 
0.00899106951292373 
0.9782326815367588 
0.9999993405725489 
0.8351636349009091 
0.6746089676256377 
0.00032030870600652543 
0.8291044191560418 
0.7859970334041919 
0.9989643776070062 
0.1003038981707026 
0.18700554607358041 
0.9376506997766593 
0.07755150897931533 
0.8648075800215037 
0.1201123521279946 
0.7856066884301985 
0.9933359984169225 
0.7057302991037689 
0.9165502584219243 
0.9777508915944857 
0.004208298398049043 
0.0008406165050999716 
0.9999999605727635 
0.843649732116316 
0.8455762058273358 
0.3406748078781635 
0.000309921893140339 
0.41362059382690225 
0.015306367692686411 
0.36510493681696615 
0.9484508357068956 
0.16002991670474973 
0.00235005432814487 
0.03744017125229613 
0.9307800110325953 
0.101837660379367 
0.809934182839983 
0.7611201905384211 
0.8035979189409171 
0.4863530378106824 
0.9865579022389823 
0.9987308221429355 
0.9997819224344962 
2.805870701729274e-6 
0.4266507992729594 
0.9694301261496492 
0.9919952099109132 
0.01492499653854549 
0.7233540743395782 
0.6917641169072979 
0.05033529198239326 
0.7021862524667926 
0.49332923320194894 
0.9944387590046556 
0.942860319787438 
0.5044559186998201 
0.11103537379562411 
0.999952284905659 
0.0004114455440462228 
0.9861954644127864 
0.9999994995542891 
0.44789506033899773 
0.16341843947778498 
0.17985945156605257 
0.6241296099502581 
0.29982706208074666 
0.07039913194644747 
0.6739055933661623 
0.03695731470154893 
0.42552144797675795 
0.19113455523489972 
0.8154361346702899 
0.9960047180183084 
0.7655212176359063 
0.690811837786969 
0.4585140585363073 
0.9999512439788171 
7.185259920734282e-5 
0.3236107471234261 
0.15067794651700558 
0.048186622526856925 
0.11251086120051484 
0.5507126181212093 
0.5974138335289498 
0.949544661843414 
0.2990569651392695 
0.27589704639020235 
0.3547679657232784 
0.6929040537145492 
0.49344350315385244 
0.883166284705363 
0.65434599358864 
0.5986329597092621 
0.5684977760650345 
0.012456147789406413 
0.4533848296733208 
0.5230972347307047 
0.3637124792217849 
0.9855464582025767 
0.03331708493587282 
0.9851629266846833 