# vtk DataFile Version 3.0 
Unstructured Grid 
ASCII 
DATASET UNSTRUCTURED_GRID
POINTS 124 float 
0 0 0  
1 0 0  
1 1 0  
2 1 0  
2 2 0  
0 2 0  
0.2 0 0  
0.4 0 0  
0.6 0 0  
0.8 0 0  
1 0.2 0  
1 0.4 0  
1 0.6 0  
1 0.8 0  
1.2 1 0  
1.4 1 0  
1.6 1 0  
1.8 1 0  
2 1.2 0  
2 1.4 0  
2 1.6 0  
2 1.8 0  
1.8 2 0  
1.6 2 0  
1.4 2 0  
1.2 2 0  
1.0 2 0  
0.8 2 0  
0.6 2 0  
0.4 2 0  
0.2 2 0  
0 1.8 0  
0 1.6 0  
0 1.4 0  
0 1.2 0  
0 1.0 0  
0 0.8 0  
0 0.6 0  
0 0.4 0  
0 0.2 0  
0.5910945 1.4201009 0  
1.3 1.5 0  
0.5 0.9 0  
0.5 0.45735264 0  
0.9239872 1.6143923 0  
1.6307573 1.626705 0  
0.33754444 1.6445746 0  
0.32978886 1.214998 0  
1.6851562 1.3148438 0  
0.8831567 1.2974424 0  
0.7033333 0.6722222 0  
0.2949507 0.6649003 0  
0.63050395 1.7040501 0  
0.74325603 0.27644596 0  
0.256744 0.27644596 0  
0.63136816 1.1443895 0  
1.1545725 1.2690855 0  
1.1720147 1.7402579 0  
1.4240171 1.2648034 0  
0.23959011 0.92461 0  
0.8107228 0.86943364 0  
0.23662253 1.4200451 0  
1.4224459 1.7526909 0  
0.5 0.1504431 0  
1.8047309 1.4973525 0  
0.7981302 0.47776735 0  
0.22045451 0.45506904 0  
1.4992887 1.4101527 0  
1.0931909 1.4595315 0  
1.789714 1.7908171 0  
0.8796071 1.8387487 0  
0.49989745 0.6716938 0  
0.7851309 1.4764543 0  
0.49252272 1.809632 0  
0.18150334 1.7950093 0  
0.81025064 1.1102352 0  
0.16565347 1.0805676 0  
1.5877995 1.8155482 0  
1.8158509 1.1841491 0  
0.51676553 1.5861272 0  
0.5252694 1.2583426 0  
0.49013102 1.0916147 0  
0.17744462 1.5893708 0  
1.576535 1.1752846 0  
1.2874863 1.1531469 0  
0.14641297 1.2631222 0  
1.0119851 1.1680862 0  
0.7092125 1.2935301 0  
0.42284754 1.4240315 0  
0.69994855 1.853183 0  
1.2822672 1.8536906 0  
0.19234438 0.7888288 0  
0.86722016 0.7 0  
0.84192544 0.15807456 0  
0.15807456 0.15807456 0  
0.63347125 0.5218315 0  
0.364889 0.52034765 0  
1.8338945 1.3427032 0  
1.0702482 1.8212602 0  
0.63719785 0.8178292 0  
0.35280898 0.82491785 0  
1.4281093 1.5876012 0  
0.93334895 1.4448447 0  
1.2930926 1.3427867 0  
1.8513182 1.6457847 0  
0.7722605 1.6822985 0  
0.69183165 0.12362097 0  
0.1248723 0.30443278 0  
0.876379 0.30816835 0  
0.30816835 0.12362097 0  
0.64661175 0.98891705 0  
0.15162335 0.62259674 0  
0.6581318 1.5687946 0  
1.2836125 1.6623446 0  
0.33270323 1.8672166 0  
1.6607798 1.4612398 0  
1.0892813 1.6232412 0  
0.58947337 0.32770833 0  
0.4055452 0.3283416 0  
0.34090665 1.0172015 0  
1.0195023 1.3297356 0  
1.6972451 1.1189947 0  
1.8974285 1.8977042 0  
0.10420435 0.90383613 0  
CELLS 206 824 
3 58 83 67 
3 83 48 67 
3 32 82 74 
3 31 32 74 
3 14 56 86 
3 5 31 74 
3 5 74 30 
3 22 77 69 
3 22 23 77 
3 2 60 13 
3 46 61 88 
3 14 84 56 
3 24 62 77 
3 15 83 58 
3 46 88 79 
3 37 38 111 
3 33 61 82 
3 70 44 98 
3 44 116 98 
3 111 38 66 
3 13 60 92 
3 15 58 84 
3 23 24 77 
3 3 18 78 
3 3 78 17 
3 50 92 60 
3 2 14 86 
3 32 33 82 
3 41 113 116 
3 7 8 63 
3 41 116 68 
3 50 60 99 
3 53 65 117 
3 54 118 66 
3 2 75 60 
3 65 95 117 
3 66 118 96 
3 47 88 61 
3 42 71 99 
3 42 100 71 
3 11 12 65 
3 41 103 67 
3 58 67 103 
3 33 85 61 
3 45 62 101 
3 47 61 85 
3 15 16 83 
3 45 77 62 
3 12 92 65 
3 46 82 61 
3 24 90 62 
3 28 73 89 
3 60 75 110 
3 19 20 64 
3 55 110 75 
3 41 68 103 
3 56 103 68 
3 28 29 73 
3 42 119 100 
3 46 79 73 
3 52 73 79 
3 50 65 92 
3 52 89 73 
3 7 63 109 
3 8 106 63 
3 44 105 72 
3 26 27 70 
3 36 37 111 
3 25 98 90 
3 72 105 112 
3 49 87 75 
3 55 75 87 
3 63 118 109 
3 63 106 117 
3 36 111 91 
3 57 98 116 
3 59 100 119 
3 45 69 77 
3 45 64 104 
3 45 101 67 
3 1 10 93 
3 1 93 9 
3 0 6 94 
3 0 94 39 
3 54 109 118 
3 53 117 106 
3 48 115 67 
3 21 69 104 
3 45 104 69 
3 46 74 82 
3 50 99 71 
3 51 71 100 
3 57 90 98 
3 34 35 76 
3 42 81 119 
3 27 89 70 
3 47 80 88 
3 20 21 104 
3 33 34 85 
3 64 115 97 
3 115 48 97 
3 18 19 97 
3 25 26 98 
3 11 65 108 
3 53 108 65 
3 54 66 107 
3 38 107 66 
3 20 104 64 
3 40 80 87 
3 55 87 80 
3 46 73 114 
3 45 115 64 
3 57 116 113 
3 46 114 74 
3 19 64 97 
3 14 15 84 
3 40 79 88 
3 47 85 76 
3 45 67 115 
3 50 95 65 
3 51 66 96 
3 43 95 71 
3 50 71 95 
3 43 71 96 
3 51 96 71 
3 49 72 87 
3 40 87 72 
3 44 102 68 
3 18 97 78 
3 51 111 66 
3 41 67 101 
3 48 121 78 
3 44 68 116 
3 24 25 90 
3 56 68 120 
3 70 89 105 
3 48 83 121 
3 59 76 123 
3 22 69 122 
3 21 122 69 
3 35 123 76 
3 55 80 81 
3 49 75 86 
3 2 86 75 
3 62 90 113 
3 29 30 114 
3 30 74 114 
3 34 76 85 
3 27 28 89 
3 26 70 98 
3 59 91 100 
3 51 100 91 
3 57 113 90 
3 12 13 92 
3 44 72 102 
3 44 70 105 
3 47 81 80 
3 52 112 105 
3 49 102 72 
3 8 9 106 
3 10 11 108 
3 6 7 109 
3 38 39 107 
3 40 72 112 
3 43 96 118 
3 43 117 95 
3 56 84 103 
3 58 103 84 
3 55 81 110 
3 29 114 73 
3 4 22 122 
3 4 122 21 
3 40 88 80 
3 59 119 76 
3 47 76 119 
3 35 36 123 
3 16 17 121 
3 52 105 89 
3 48 78 97 
3 42 110 81 
3 40 112 79 
3 52 79 112 
3 17 78 121 
3 60 110 99 
3 42 99 110 
3 10 108 93 
3 9 93 106 
3 6 109 94 
3 39 94 107 
3 56 120 86 
3 49 86 120 
3 63 117 118 
3 43 118 117 
3 47 119 81 
3 51 91 111 
3 53 106 93 
3 54 107 94 
3 53 93 108 
3 54 94 109 
3 16 121 83 
3 62 113 101 
3 36 91 123 
3 59 123 91 
3 68 102 120 
3 41 101 113 
3 49 120 102 
CELL_TYPES 206 
5  
5  
5  
5  
5  
5  
5  
5  
5  
5  
5  
5  
5  
5  
5  
5  
5  
5  
5  
5  
5  
5  
5  
5  
5  
5  
5  
5  
5  
5  
5  
5  
5  
5  
5  
5  
5  
5  
5  
5  
5  
5  
5  
5  
5  
5  
5  
5  
5  
5  
5  
5  
5  
5  
5  
5  
5  
5  
5  
5  
5  
5  
5  
5  
5  
5  
5  
5  
5  
5  
5  
5  
5  
5  
5  
5  
5  
5  
5  
5  
5  
5  
5  
5  
5  
5  
5  
5  
5  
5  
5  
5  
5  
5  
5  
5  
5  
5  
5  
5  
5  
5  
5  
5  
5  
5  
5  
5  
5  
5  
5  
5  
5  
5  
5  
5  
5  
5  
5  
5  
5  
5  
5  
5  
5  
5  
5  
5  
5  
5  
5  
5  
5  
5  
5  
5  
5  
5  
5  
5  
5  
5  
5  
5  
5  
5  
5  
5  
5  
5  
5  
5  
5  
5  
5  
5  
5  
5  
5  
5  
5  
5  
5  
5  
5  
5  
5  
5  
5  
5  
5  
5  
5  
5  
5  
5  
5  
5  
5  
5  
5  
5  
5  
5  
5  
5  
5  
5  
5  
5  
5  
5  
5  
5  
5  
5  
5  
5  
5  
5  
5  
5  
5  
5  
5  
5  
POINT_DATA 124 
SCALARS fi float 
LOOKUP_TABLE default 
20.000000881949276 
20.00000296413955 
129.82666848072932 
100.00000239172765 
100.00000027500187 
105.52041903978142 
20.000000912429556 
20.00000100184617 
20.00000121697857 
20.000001529773076 
63.773414651051276 
90.75978713835296 
109.46103204607225 
122.62427949957765 
144.86687990486809 
148.35930793983792 
143.99600647937638 
129.65003175549168 
100.00000084505645 
100.00000056509981 
100.00000037453421 
100.00000029787293 
105.23594770428194 
109.6652431595192 
112.45205855222642 
113.54419759170379 
112.99276818532513 
111.34502060793355 
109.28434938861619 
107.34468075683353 
106.01116090570163 
105.03069709210166 
103.46723839249518 
100.55843763070558 
96.02711574801538 
89.32021662874583 
80.06286656218667 
68.16552967432888 
53.7646304804755 
37.490532134634385 
107.87357966734201 
119.3814043094739 
93.7675257866582 
65.66570665339931 
114.05744664001516 
111.92711175237487 
105.68036965123807 
99.33284289877943 
118.73946380830412 
116.46389901128151 
91.37932348169834 
75.20018739982736 
109.48688428200562 
57.35233954429208 
45.15336063508166 
106.10241437412463 
125.79727751038169 
114.86224065892769 
128.05430078083273 
87.97885064270073 
109.27709912623493 
102.07768756145674 
113.6577324683617 
36.117844520189706 
108.65838294646474 
81.80768640309195 
59.245098744566356 
120.32670907695788 
118.82542218620226 
106.08573919647777 
112.28951182910708 
81.5735177647883 
112.44287524545108 
108.02057154062423 
105.44757226726973 
114.26245771817125 
93.05854585087252 
110.58691561878442 
116.75439155099602 
107.509562391989 
104.49022102782719 
99.98070093841687 
103.88138100267712 
130.29374412666638 
135.54068116391605 
98.21148652286087 
124.71402700916299 
110.4051025136723 
104.64259044142965 
110.35060495404387 
113.8404872005122 
80.63532446798878 
104.81337249047561 
46.13166460399728 
34.1039045571489 
76.47023039691594 
66.78399701562276 
110.37453696025683 
113.8797091226325 
95.95519221533723 
85.6553549131028 
116.34179662169147 
116.14769385668035 
124.72193465593877 
105.24394587160462 
111.5053331503931 
36.55011251284797 
46.50719432274723 
69.05581557109767 
31.66617196706048 
103.05717873956175 
70.38659288443655 
109.78408867486529 
115.91093998703742 
106.66922628671097 
114.74352531353682 
115.86862455163649 
56.63951636792887 
51.91967573477183 
93.65610205919653 
120.40646599671005 
128.35764509275964 
102.82392642448237 
85.54959283961142 
