# vtk DataFile Version 3.0 
Unstructured Grid 
ASCII 
DATASET UNSTRUCTURED_GRID
POINTS 1644 float 
0 0 0  
1 0 0  
1 1 0  
2 1 0  
2 2 0  
0 2 0  
0.04999999999989965 0 0  
0.09999999999981467 0 0  
0.1499999999997036 0 0  
0.1999999999995579 0 0  
0.2499999999994121 0 0  
0.2999999999992664 0 0  
0.3499999999991206 0 0  
0.3999999999989749 0 0  
0.4499999999988292 0 0  
0.4999999999986943 0 0  
0.5499999999988151 0 0  
0.5999999999989468 0 0  
0.6499999999990784 0 0  
0.69999999999921 0 0  
0.7499999999993417 0 0  
0.7999999999994734 0 0  
0.8499999999996051 0 0  
0.8999999999997368 0 0  
0.9499999999998684 0 0  
1 0.04999999999989965 0  
1 0.09999999999981467 0  
1 0.1499999999997036 0  
1 0.1999999999995579 0  
1 0.2499999999994121 0  
1 0.2999999999992664 0  
1 0.3499999999991206 0  
1 0.3999999999989749 0  
1 0.4499999999988292 0  
1 0.4999999999986943 0  
1 0.5499999999988151 0  
1 0.5999999999989468 0  
1 0.6499999999990784 0  
1 0.69999999999921 0  
1 0.7499999999993417 0  
1 0.7999999999994734 0  
1 0.8499999999996051 0  
1 0.8999999999997368 0  
1 0.9499999999998684 0  
1.05 1 0  
1.1 1 0  
1.15 1 0  
1.2 1 0  
1.25 1 0  
1.3 1 0  
1.35 1 0  
1.4 1 0  
1.45 1 0  
1.5 1 0  
1.55 1 0  
1.6 1 0  
1.65 1 0  
1.7 1 0  
1.75 1 0  
1.8 1 0  
1.85 1 0  
1.9 1 0  
1.95 1 0  
2 1.05 0  
2 1.1 0  
2 1.15 0  
2 1.2 0  
2 1.25 0  
2 1.3 0  
2 1.35 0  
2 1.4 0  
2 1.45 0  
2 1.5 0  
2 1.55 0  
2 1.6 0  
2 1.65 0  
2 1.7 0  
2 1.75 0  
2 1.8 0  
2 1.85 0  
2 1.9 0  
2 1.95 0  
1.949999999999792 2 0  
1.899999999999584 2 0  
1.849999999999375 2 0  
1.799999999999167 2 0  
1.749999999999002 2 0  
1.699999999999306 2 0  
1.649999999999653 2 0  
1.6 2 0  
1.550000000000346 2 0  
1.500000000000693 2 0  
1.45000000000104 2 0  
1.400000000001387 2 0  
1.350000000001733 2 0  
1.30000000000208 2 0  
1.250000000002427 2 0  
1.200000000002774 2 0  
1.150000000003121 2 0  
1.100000000003467 2 0  
1.050000000003814 2 0  
1.000000000004117 2 0  
0.9500000000039528 2 0  
0.9000000000037447 2 0  
0.8500000000035368 2 0  
0.8000000000033287 2 0  
0.7500000000031206 2 0  
0.7000000000029127 2 0  
0.6500000000027044 2 0  
0.6000000000024965 2 0  
0.5500000000022884 2 0  
0.5000000000020806 2 0  
0.4500000000018725 2 0  
0.4000000000016644 2 0  
0.3500000000014563 2 0  
0.3000000000012482 2 0  
0.2500000000010403 2 0  
0.200000000000832 2 0  
0.1500000000006243 2 0  
0.100000000000416 2 0  
0.0500000000002081 2 0  
0 1.949999999999792 0  
0 1.899999999999584 0  
0 1.849999999999375 0  
0 1.799999999999167 0  
0 1.749999999999002 0  
0 1.699999999999306 0  
0 1.649999999999653 0  
0 1.6 0  
0 1.550000000000346 0  
0 1.500000000000693 0  
0 1.45000000000104 0  
0 1.400000000001387 0  
0 1.350000000001733 0  
0 1.30000000000208 0  
0 1.250000000002427 0  
0 1.200000000002774 0  
0 1.150000000003121 0  
0 1.100000000003467 0  
0 1.050000000003814 0  
0 1.000000000004117 0  
0 0.9500000000039528 0  
0 0.9000000000037447 0  
0 0.8500000000035368 0  
0 0.8000000000033287 0  
0 0.7500000000031206 0  
0 0.7000000000029127 0  
0 0.6500000000027044 0  
0 0.6000000000024965 0  
0 0.5500000000022884 0  
0 0.5000000000020806 0  
0 0.4500000000018725 0  
0 0.4000000000016644 0  
0 0.3500000000014563 0  
0 0.3000000000012482 0  
0 0.2500000000010403 0  
0 0.200000000000832 0  
0 0.1500000000006243 0  
0 0.100000000000416 0  
0 0.0500000000002081 0  
0.5857142857143259 1.414285714285766 0  
1.475000000000867 1.500000000000017 0  
0.4947320851077386 0.5226113507730143 0  
1.021874014506979 1.545155313780666 0  
0.4564686046591138 0.980287713182221 0  
0.3457097037717378 1.653451835100108 0  
0.3124985479062093 1.260286193333303 0  
0.7398534175308014 1.683552871211351 0  
1.224990739588601 1.316629632398658 0  
0.6890067653897881 0.7733207799356288 0  
0.8605253564575421 1.280821475446548 0  
1.692456902617293 1.695864880326467 0  
1.695787337366645 1.291382044889313 0  
0.7044091625362741 0.3024610131214812 0  
0.2970705607113831 0.2963046826698438 0  
1.262382997716244 1.713460689859315 0  
0.2930608780134371 0.7331908400288631 0  
0.7206701520387024 1.044943977968927 0  
1.463410305989389 1.244570627971675 0  
0.756170482864303 0.5379080179773642 0  
0.2320239672128937 1.042883464058052 0  
0.9639821732094487 1.767772044788037 0  
0.5445499579749357 1.194260017950005 0  
1.483910559225288 1.768721544596045 0  
0.2312530950856621 0.5240252342191808 0  
0.2264291558008308 1.468175886965761 0  
0.5377304216502001 1.776704707040492 0  
1.78350009894612 1.500000000000003 0  
0.4974264350910687 0.2190524142511085 0  
0.815253503803737 1.48636845130215 0  
1.056326934054234 1.220939439852757 0  
0.2009674446711331 1.799032555328867 0  
1.274198408832753 1.506178440710152 0  
0.4871175141239569 0.7807431030875922 0  
0.4009610404643731 1.48047937348463 0  
0.5865992707407581 1.588541885364432 0  
0.8203831653487169 0.8967786449236509 0  
1.129582555163766 1.822052421424957 0  
0.1889322722432889 0.8701409410925465 0  
1.829494692743958 1.176489178631523 0  
1.827486875748606 1.827737421205753 0  
0.826469675324344 0.1658852819094069 0  
0.1722625787941717 0.1725131242513778 0  
1.066581613416334 1.373484412517306 0  
0.6848038838398033 1.277290234014175 0  
0.1711944750082945 1.629164230294346 0  
0.3708357697056066 1.828805524991626 0  
0.8850582790713031 1.120476336710776 0  
1.308714233248406 1.180946795359309 0  
0.8330015816784163 0.6867718421182551 0  
0.611881393661285 0.9192122326769319 0  
1.607030030778051 1.164284085194689 0  
0.8382051257577146 0.397557438195053 0  
0.1630067511454708 1.190777897651673 0  
0.8078747900319363 1.835074536952978 0  
1.633294903499426 1.557508295131034 0  
0.5574860302309291 0.3741442583897133 0  
1.380750146459769 1.375674489724801 0  
0.6232748516629808 0.6269202433848837 0  
1.625949540712644 1.842384014477303 0  
0.1579153815274279 0.371883390348866 0  
0.4593951881043177 1.321007214847578 0  
0.397132914501176 1.124651597079111 0  
0.8940720665503572 1.629646526796186 0  
0.3671992190499228 0.4443031803179892 0  
1.343479416508557 1.843338224862949 0  
0.1566846150760616 0.655824753997157 0  
1.556550477140582 1.366814302840725 0  
1.842497100292819 1.648655355007488 0  
1.841281237059478 1.360242755476279 0  
0.3470849253909408 0.1551837312198927 0  
0.6473766090876509 0.1571334545424754 0  
1.406302705724821 1.639081800295053 0  
1.118383177181597 1.670475580156549 0  
0.3324126919122869 0.8830963452539382 0  
0.3613344582486984 0.5939225589574819 0  
0.1483326772491574 1.339056018260206 0  
0.6617027950641716 1.852082556517328 0  
0.9257787748658309 1.401765399096753 0  
1.176644640072377 1.138081226984297 0  
0.5720651801977985 1.051545592654036 0  
0.6291500451304733 0.4868244006027176 0  
0.6902787761027895 1.516274626208555 0  
1.53773660187301 1.646317647178002 0  
1.145733452496522 1.489070574245745 0  
0.4318575249358791 0.3216968567426289 0  
1.673736775530642 1.428728680844072 0  
0.7649525084255013 1.164611714708955 0  
0.3261128531691814 1.386164369105902 0  
0.4801688299638394 0.6528026287627753 0  
0.4661928864621195 1.661898263340985 0  
1.429107807179586 1.12620582811809 0  
0.8767980867182652 0.5699089195899346 0  
0.7753233704554175 1.371893402159487 0  
0.1228018064855715 0.9816626123018564 0  
1.018337387698071 1.877198193513707 0  
0.8772689215744807 0.2813517650217187 0  
1.718324937963629 1.122846855162248 0  
0.11834186660525 1.52118233197566 0  
0.4788176680242687 1.881658133395093 0  
1.235113851916639 1.882822735094659 0  
0.1171772649060191 0.7648861480831766 0  
0.1249482260194411 1.882820983567236 0  
0.8800466045328913 0.7990698885869845 0  
0.9836130489491997 1.294590988414691 0  
0.3045665833727275 1.541858601147273 0  
0.8823143511159418 0.9964504732023387 0  
1.519242243734985 1.882188076276466 0  
0.1178520486950893 0.4805015651424944 0  
0.2757547086267635 1.134765125988892 0  
0.3465805787407943 1.021349742708466 0  
1.002892297830903 1.66272313599787 0  
0.6269796247988039 1.704515304038372 0  
1.217522877629753 1.606022730976408 0  
0.5781074751677633 1.295379650767752 0  
0.7219799598138478 0.4134048266003291 0  
0.6469864614761782 1.138807190726036 0  
0.1121395104952148 1.731143158703481 0  
0.26995027351047 1.88546900214726 0  
1.734139205792098 1.888565891483938 0  
0.1201290721449672 0.2702546925817873 0  
0.9810056273414816 1.124428482121739 0  
0.460138724048765 0.111682117442205 0  
1.882108019221301 1.539234634913852 0  
0.1122558567312905 1.097407118402782 0  
0.9074616034076923 1.888771800372518 0  
0.85550160606281 1.728855519975065 0  
0.5223851437608271 1.50647847625738 0  
0.5926028316153156 0.7358979896737923 0  
0.2631870127673593 0.4039996164402345 0  
1.331178872441088 1.275279220728026 0  
0.7365655889894032 0.6473336044502597 0  
0.715068196086953 0.9414141918588532 0  
1.726506443746007 1.591683205957524 0  
0.5916741338263029 0.2733542893659069 0  
0.2584461123755951 0.1053615100818678 0  
1.892260191048774 1.740211813266618 0  
1.887799349957185 1.262308181696432 0  
0.7368669985663808 0.1143096858171956 0  
0.2582795559270123 0.6190150956576079 0  
0.7701503537402994 1.567047364944729 0  
0.5174942116774097 0.8792474371270622 0  
1.123450622912133 1.287545628536416 0  
0.9182764474463652 1.52883495268271 0  
1.386528862157585 1.73958119129463 0  
1.60028959037207 1.737467665100723 0  
0.4035680501691777 0.7295056430312845 0  
0.2476121975327094 1.70470570931312 0  
1.373275450746299 1.542372907207489 0  
1.606009220083216 1.270941741122711 0  
1.230637393218138 1.421169742630447 0  
0.93198445031031 1.216629467468785 0  
0.4134058313013822 1.229798626134879 0  
1.904373125927047 1.094774403865605 0  
0.905225596134427 0.09562687407291533 0  
0.100822620421387 0.09817663403445795 0  
1.90182336596553 1.899177379578596 0  
0.4587529142964877 0.4218538214866638 0  
1.568394475982853 1.477974299459494 0  
0.9062446075807851 0.4629071573733621 0  
1.530789523770995 1.09904910075063 0  
1.069329352924169 1.756585177622522 0  
[...]
POINT_DATA 1644 
SCALARS fi float 
LOOKUP_TABLE default 
20.000000220868777 
20.000000938322472 
129.99437062605125 
100.00000077597733 
100.00000006980603 
105.79557965172316 
20.00000022128959 
20.00000022245846 
20.000000225264483 
20.000000227882285 
20.000000232672576 
20.000000238723022 
20.000000243883672 
20.00000025209312 
20.000000262892012 
20.000000273346444 
20.000000284439334 
20.00000030312836 
20.000000320254724 
20.000000337500378 
20.000000368665333 
20.00000040597525 
20.000000437268927 
20.000000509705757 
20.00000061911943 
35.37985805946262 
46.57675215722338 
56.06741734266901 
64.5344627079649 
72.06349671704544 
78.92601816154645 
85.22242190733432 
90.98007157784347 
96.25938124868313 
101.12655135390702 
105.5972603271611 
109.64177926790758 
113.35244931872163 
116.69123851936541 
119.66975520646311 
122.26443046369731 
124.5334429621571 
126.47920947557415 
128.1368432393351 
137.2125015471185 
141.41219817819177 
144.42165531768399 
146.61981892893294 
148.1372499364316 
149.05124234840412 
149.5265437435877 
149.46252375139252 
148.9832976736536 
148.00166929016822 
146.56888603930216 
144.68399678740414 
142.28343144401668 
139.31336044449958 
135.72187766627272 
131.49336579344958 
126.28409228200263 
120.0729928255703 
112.13155149166849 
100.0000004568717 
100.00000034769755 
100.00000027552075 
100.00000024431614 
100.00000020761104 
100.00000017825059 
100.00000016106942 
100.00000014472309 
100.00000012705216 
100.00000011682037 
100.00000010682346 
100.00000009777648 
100.00000009004933 
100.00000008546866 
100.0000000800645 
100.00000007588174 
100.00000007360804 
100.000000071176 
100.00000007016841 
101.3920826467682 
102.76956097168583 
104.11573735508989 
105.4189953551727 
106.65473402969417 
107.83010221201464 
108.9125969851257 
109.90419630619495 
110.79505583657053 
111.58612237262221 
112.25424119431867 
112.80835154634255 
113.25065835844977 
113.57667939627026 
113.78456653587347 
113.89733244607379 
113.89797574593933 
113.80105564493073 
113.614524722237 
113.35735851707393 
113.0258974754531 
112.62919482807266 
112.18642344931632 
111.70598109923638 
111.19575657900812 
110.66892827708881 
110.13350302150535 
109.5983624104213 
109.0722563663532 
108.56513090065785 
108.08598441306688 
107.63601930262352 
107.22530686577156 
106.8587079967622 
106.54588820764566 
106.27716135126151 
106.06897596375977 
105.91743776790359 
105.82603163508172 
105.76473965804914 
105.67285621092 
105.51896661587027 
105.29953092180665 
105.00690686286865 
104.65727851346297 
104.22755345462443 
103.72000134501468 
103.126638185797 
102.45539167226893 
101.68144460746525 
100.80375619485913 
99.82800197825108 
98.73608444078741 
97.51736842507313 
96.1816240454071 
94.70524360795537 
93.09049176863661 
91.33836573529943 
89.42228712847513 
87.34269393916908 
85.11618173289256 
82.72244061539864 
80.16224061977793 
77.42066992652633 
74.53308321664434 
71.47156590154312 
68.24773970176682 
64.86976068728953 
61.34183954856758 
57.65630437987428 
53.84566399886749 
49.9104896919495 
45.864074823172686 
41.70537633728001 
37.47606264260715 
33.16739818862618 
28.808334473711955 
24.412675364032072 
108.00602157179176 
118.42921117105897 
70.81887574064305 
116.72787783404895 
95.4972036516617 
106.05047031145324 
100.24919877148092 
111.386984122784 
126.00490795178641 
96.57603897587613 
116.17886909577514 
109.66328833644694 
119.5422035211858 
58.68322735255012 
47.37706658999055 
115.61627955967776 
79.39362974518042 
108.4257173164365 
129.53441841758922 
84.66069074282011 
92.73228929993815 
113.80828320474437 
104.18683894879038 
113.05847000423083 
64.66887079923151 
102.96842337596647 
108.73521191182269 
109.5922172756522 
43.348295054992015 
113.40809679012686 
125.49610132991879 
105.82732155925659 
119.73934796429037 
87.53299413962569 
105.1878447232527 
108.90795685511014 
110.70926870222054 
114.4631818957425 
84.88978284782513 
116.2932397950587 
105.02167783840987 
46.77651284413098 
35.48155744317426 
121.04342042626783 
109.78042380214869 
104.49060118508325 
107.13969007668125 
118.64816100246031 
134.27616609475575 
101.14106752749684 
99.20318135468284 
130.61697472575486 
76.90825252415816 
96.64239051759967 
111.94682810265196 
113.48570636187786 
60.248425688985606 
123.9363613533504 
83.95712489701812 
109.88999631348605 
52.24849026858954 
104.14239983618296 
98.52654180286747 
113.91458525185989 
61.042597755550304 
113.87057460289569 
72.64203529841767 
121.40062114179614 
105.5958876458342 
109.5936947614035 
35.03028476607987 
39.663833260767724 
115.96756845407661 
115.90939692223404 
88.05561363425679 
72.11914322733298 
100.10294107102281 
110.26096349113477 
116.90099955621737 
134.42477105913636 
101.867437656027 
73.32058523693146 
110.65850443645755 
113.92656598263126 
119.4157754859083 
51.92373573663412 
115.48271437601154 
112.2293927546211 
102.84057659223751 
79.64380250565557 
107.4733802968433 
138.05892203470623 
96.08126370908454 
112.8408412478298 
89.16214058833967 
113.68370881043413 
65.97493895534356 
127.66512630010936 
103.00610064230781 
108.27733898978843 
114.12752687682719 
78.71763543890214 
105.82458252706449 
111.24396100826918 
120.5762783131229 
104.64662767818496 
118.00297712249657 
111.60592459364292 
60.31786292335532 
96.41909698103103 
94.0489129940545 
115.0217526074805 
109.76162828857349 
117.36771847518278 
106.69700743035689 
71.27339162549902 
106.79440322032902 
105.06391084669639 
106.5287393158768 
107.22672966919436 
43.67073727397429 
124.76742640539402 
31.725001046411656 
105.03711403563568 
93.37495106840375 
112.81744466139999 
112.82783083130415 
107.39736275005164 
89.44957211629969 
55.949970545211976 
128.79866180978712 
91.75832475742637 
105.34635451689164 
110.09098224569038 
51.31097179335085 
29.804476634759517 
103.45229337923081 
108.79035254485979 
36.269681365722654 
71.66066381834466 
112.15345983171957 
93.52920252666992 
125.2175122588303 
115.19359316561454 
114.56386250867351 
111.35238264526372 
81.91144438398281 
105.5728391899101 
118.44052860026494 
124.28140689689414 
122.11777119254958 
120.04292719442064 
101.48127085148764 
112.7315783608424 
38.92705129142396 
28.722020703664874 
102.78277268875314 
61.449356620610885 
117.19125161106149 
88.91838715977497 
138.18126412392516 
114.70331981547037 
88.89686852774035 
106.15429155830249 
105.11414397411359 
32.05844895658234 
110.41922627786988 
101.43205873157439 
109.26101103380684 
131.4336656575975 
106.99022623739994 
115.039172532218 
38.756405726691206 
48.752869769683066 
104.11171890499867 
107.09781485211644 
112.7751288037447 
66.9155385614101 
117.17279064528644 
100.73473931265723 
121.89184236491337 
111.1531810077243 
106.0352113503065 
93.9644248006119 
108.1341329396972 
44.96341168774226 
110.5522076371359 
97.82986535502351 
111.1426700168697 
100.57318713589017 
88.62490166550668 
130.8658641617163 
115.37519963831414 
83.63030196310709 
43.392686406936996 
118.22518245914898 
112.32969266505637 
124.00783163597738 
65.12233591872568 
117.20375212474742 
139.65175516794685 
106.30428917036572 
117.81552059087089 
114.65183621826675 
77.68548984140492 
113.95599999996713 
85.76484367567878 
111.21972567561032 
65.73495259731892 
112.07415137422814 
63.315767524657375 
103.91187343976166 
115.6059442560033 
67.99219706241804 
113.15401072757436 
55.66350836416841 
123.71641753700679 
103.40966019737385 
99.92555060761401 
116.02454950014553 
103.77546673620246 
107.61953463700199 
141.4808473487028 
105.13792237967427 
107.18082359396195 
98.15724233757355 
84.25807172448995 
105.2502613174772 
36.76008857467753 
78.56430071063953 
135.4561574898251 
121.08576966584017 
81.68965026375587 
76.88661242741672 
131.59775145741597 
82.02361812506543 
98.97386765601634 
67.60619896152252 
123.20060985065443 
113.21455735386355 
112.07396795351399 
95.60338575067168 
124.48730616782822 
133.25031141521708 
102.41156382306387 
107.87136819593056 
105.40316548006973 
106.1734073294334 
125.68188152830857 
112.51343150570324 
50.81154245021536 
98.07799691954175 
107.46422885205646 
113.68116341119574 
74.35080458298333 
94.82699665298172 
110.13912786726621 
54.411408451777696 
27.628248529385882 
108.00620333743856 
102.52074452203313 
33.231763239658314 
112.88385028181749 
105.10099265175677 
108.90379534177113 
114.28449997017833 
53.930213838265566 
115.58904756676762 
93.1862616952119 
119.27539667640738 
109.72509154581856 
108.64329810849435 
102.9894501723495 
27.822076547212735 
90.79807902464793 
116.53696885625908 
92.05588899596891 
129.25913631471786 
103.82520937267277 
113.35013573052673 
67.76140401572768 
104.79525987320325 
29.616630043723728 
113.49450324454179 
111.46308305480846 
58.275564630012425 
125.51647910136853 
104.14113187378776 
103.67099014801427 
112.55151266772381 
96.84913416177655 
115.20817151574539 
113.91850535845049 
122.32471480162144 
111.29302271678982 
108.99294845949186 
107.63527705921491 
41.97534539863439 
76.11726166827958 
111.92893994183159 
99.1688664428102 
101.54827443450068 
83.18945853156829 
106.01555038513577 
107.83879170008586 
49.13002213037908 
99.53286953385589 
110.33900549386522 
115.85227295637456 
118.96801985188702 
74.08596224618304 
101.47526986163032 
81.76864496708885 
114.0108549714191 
108.57070523717678 
48.37013105080225 
109.5293319617794 
77.17302408040061 
104.7436373130944 
119.40170929415254 
122.62158763959387 
90.90885084646173 
113.21015279747442 
120.62735885300954 
94.8608557080029 
115.17326481748037 
114.51385316365635 
42.22175046567047 
118.31763940554347 
103.76501992946059 
108.7513003036486 
98.7057469612896 
77.06771157729452 
119.94289596447835 
55.40164284307312 
138.3838219192897 
104.48934820161575 
107.02103911246158 
91.99828139307022 
113.37931231080753 
116.12357385940783 
107.9483807894553 
106.3923349598382 
105.11006957058329 
109.37516367457646 
112.81755399300307 
87.98588004914086 
114.12994189546149 
105.74856620920318 
105.81271894877173 
116.13335441249602 
114.57824579819268 
81.25383533036063 
26.660737355509596 
102.40727105675003 
77.19183418577398 
50.81730169646571 
102.34777750268302 
108.82686539168395 
98.73267460884156 
84.62886666373151 
111.85566892541263 
117.84438986578068 
111.21502598838742 
142.60236378028372 
97.7675509792848 
121.7700869729733 
109.71590060658218 
113.94476803749278 
120.66929646207564 
128.95335488331006 
37.15812617263196 
92.54661863887453 
48.225966881758566 
109.62608129494814 
36.5114147205792 
106.52399183973753 
91.02454750590731 
116.12985416922886 
114.99637831927292 
57.78280783440163 
104.81285212266847 
114.911885044538 
116.1049176258433 
75.86189322453941 
110.59445423115885 
102.16128021656272 
108.8097983361561 
61.23631803466027 
112.12625544137924 
63.72717058137777 
117.82109155309516 
121.81296007858762 
102.41124686157472 
122.53834836729331 
127.88453600513324 
130.78834125686268 
57.11324611497995 
85.52288233498142 
106.75855060884199 
97.02373117623532 
70.08394655319489 
27.449881759305534 
103.11746105497195 
66.52174995355628 
117.4943315715033 
114.1130347447659 
113.66489188071688 
87.6168482002027 
113.23785772821994 
70.59698425064556 
101.1053856775828 
104.12684099343976 
87.37522568318387 
139.6454834635806 
116.49756764436661 
133.42733206669905 
89.11486101692135 
119.40745203572234 
135.9022043819692 
119.02912702872194 
118.18567929063119 
105.6717939468024 
121.18172968688435 
105.34092770556484 
105.68403825030717 
114.39815928389748 
93.73283708322722 
67.65826485540757 
130.23616905307384 
115.29250852516662 
103.72318430976851 
114.79383212121873 
111.26513506384367 
129.15004478120449 
127.8932009410173 
106.1329065539296 
143.6895304912715 
103.5920706358773 
109.58812266764676 
114.86611083618598 
86.68239444234287 
103.1952850372635 
108.07708623994795 
112.15200907437105 
112.29906987526536 
63.72013161156349 
116.7123547878365 
109.45111762064842 
106.67544579797848 
40.955533813240706 
117.02769302810985 
67.25073540757852 
103.53949899928324 
27.493661171232556 
105.95939779943942 
105.60412505574305 
128.7636530235903 
68.82100285388913 
97.13437076539444 
108.49336801521737 
46.58143976904797 
109.2711492678488 
109.74343660063606 
90.5019538946655 
106.70309346412881 
113.77780543458792 
110.06865541128506 
34.09698864648665 
25.469911781745157 
101.73309996949133 
110.87260090591786 
123.3961759318333 
58.72418656878976 
122.88486022414398 
110.45811329526137 
107.1395324937424 
70.21278109858191 
98.86530362041809 
112.49332593459067 
93.84557974045052 
55.694817046051114 
113.86472675330931 
77.46430456729206 
50.023791496977104 
120.49571118070594 
82.29050690642664 
114.16984758106798 
107.70271275433308 
128.02389216069417 
112.85736287208076 
46.61609123460686 
130.21681492135463 
114.12595196505787 
76.11069262642376 
123.83724609262526 
92.85926260040422 
111.04171073163296 
58.517519335297564 
123.43236226082833 
106.59295371894132 
41.39519678891678 
109.07870714150934 
107.30195481086321 
104.70652446876149 
34.29643578770793 
110.43570669432474 
39.68237209968371 
77.0110645830985 
98.82135867898475 
103.86047751363589 
115.07113138469767 
140.90029114957562 
104.71216935173244 
112.7053543397329 
34.366104502784374 
42.69723162154921 
120.37746585401382 
104.6353399946473 
137.1264325677032 
105.08202360727202 
106.48936713510322 
105.14122694807995 
106.16357541383167 
86.65482047251828 
64.3349079707505 
108.3518478097695 
96.92165651770733 
94.72279317154721 
117.19950083339761 
64.02608341247496 
102.3836266123885 
26.279464836377812 
108.25358701378705 
107.89351101624014 
111.3650014214943 
126.09952558218943 
103.34626758595367 
105.39447848773028 
90.77837701286599 
118.8769858062171 
95.66192387779452 
106.16193515827608 
102.51258296787431 
25.146258164492384 
104.80939962747406 
101.74888153463931 
28.40037546719528 
108.53699018228143 
114.32471616740969 
110.28635541331177 
113.95947752791595 
90.16016134452988 
103.93351639944288 
32.50817637279183 
112.10480787019517 
84.17733223116745 
94.93489633467739 
52.229106433139265 
105.13722893384703 
111.08156087666404 
100.40735729231197 
109.79860974090715 
113.12508809066851 
131.94928684910516 
75.17957923017072 
134.81168149351822 
100.56801144193717 
143.19866884823873 
118.1948940117606 
55.83083722741703 
57.344166695443654 
106.89505340389329 
24.71768834063295 
30.71604429661759 
101.52617114153644 
101.1599120334206 
86.22219059810857 
113.88440187763894 
112.34847749050579 
105.66256521719866 
122.76928799994319 
110.76975268836729 
56.180344249090496 
112.18577880943727 
111.51235374348019 
96.83476567023249 
110.42407386837642 
115.13389315251496 
80.41613799666952 
105.85354007614991 
56.76855476105318 
111.7627341451015 
117.18011419114616 
116.2709484623651 
108.17691862266149 
43.92760729473986 
110.4279985900372 
94.81830754531171 
47.526306575886146 
113.34974225369247 
89.98966061427187 
124.96400764904584 
107.09559276051259 
104.91539620767905 
72.89569635100534 
87.03731665045072 
117.51569812835405 
47.384856038765484 
106.92777622319876 
81.18070532880137 
95.66177613766821 
123.97167720190981 
120.76717321209688 
106.03452427805259 
38.40767694634019 
101.23546740829615 
118.11894226199676 
112.2771409191106 
119.5719088844427 
71.26440956236782 
114.90467064603646 
126.66816638282727 
125.77750107418007 
100.92807571381849 
122.0551812067938 
115.77944127022984 
82.6405801558388 
135.1816016550131 
117.51631192058049 
102.664027031776 
122.77134878798101 
115.78134637396234 
114.02295051738295 
136.82530047702008 
91.72941764847201 
106.00897645226593 
103.65536911973312 
31.288931488044103 
126.9269250310878 
114.35050320812779 
114.31040500034914 
122.81320663722103 
105.66856576223867 
97.42998299618603 
111.72640489582626 
80.08836192218365 
111.2253193206952 
62.03905946674696 
66.42590401184906 
131.7586000790278 
118.00079053614189 
103.98661358837053 
27.748575366909762 
36.89637338541218 
114.49578619389077 
99.7322680858107 
72.79962889302587 
110.63441958792674 
106.34056147475238 
109.83613729250348 
85.23983216471387 
131.50488109644473 
54.837431836787 
106.42098360036492 
109.0993136215917 
106.42645546045874 
107.98064546014449 
106.95951766986474 
142.91172307039272 
94.41730037120638 
100.35415870794819 
65.0182291134565 
116.34275771770592 
139.67985831596263 
98.40725657839327 
110.85457113651053 
63.10509487523825 
105.24737483258458 
100.04166039920197 
118.85935343495458 
113.37079324407745 
70.40915458650392 
119.11231406364709 
105.94452715309757 
115.4125831101735 
82.34689373069975 
86.85713555430667 
90.48323360302504 
76.14405573404947 
123.67067733327579 
112.34909438780241 
110.96666358511798 
115.1691512146374 
94.76769669988902 
112.60500780832037 
66.79897143069326 
135.48987325600157 
87.2306673731591 
114.14065159089368 
96.7550195575402 
111.70105451695132 
110.83331443266984 
123.48847481424596 
60.970054949212376 
69.56492819590571 
113.9141947510486 
83.73671815411652 
104.85181845160122 
126.93144887069336 
104.56517527569281 
110.72245979695252 
77.18550734519604 
104.52471270761046 
87.14933150382562 
68.68428550976773 
113.65188328808797 
94.70898088587614 
112.19634398375062 
63.68901096759451 
67.75174782017069 
108.34029252203467 
117.45970823293402 
115.24242139477718 
106.61894570893111 
100.10803545863286 
102.41998284379244 
25.284117910669885 
107.1986876390898 
101.43938235635416 
109.225050622268 
111.6718916342191 
121.18308071081472 
104.46175142984569 
112.61150220231359 
111.95280443796402 
40.40506050616801 
109.39335308288626 
51.681293183466416 
74.59654062925952 
104.4929450814682 
114.45442129390472 
102.02194674203773 
102.75278202444424 
101.81052788076849 
100.30336836393182 
110.2433788626932 
68.37037994649332 
104.07240447373113 
107.36586513754453 
41.34413319604201 
33.43162118742367 
115.81244261482804 
134.03256741020564 
61.66046454001969 
109.43351501758443 
51.3236605855677 
117.6977049282465 
107.624489067426 
45.053073384824536 
39.792388311390496 
30.846476539086318 
103.96189019747281 
80.2063899067559 
111.8960900335725 
32.269823727698466 
106.06042970655626 
129.74926129497828 
114.83306032824524 
83.44041620370218 
75.19042399803175 
110.77671083465931 
91.35347630484728 
99.07031471193163 
126.16505483139342 
107.3682512893057 
119.82473036832954 
112.91514176181332 
92.01559501012343 
105.57769976865592 
37.5657381461499 
108.37801189106202 
96.18386056554911 
116.89206831742318 
91.16024527961713 
109.18145932195736 
93.3774035057799 
99.3197722018291 
121.7911062379055 
114.88382267598551 
97.7913002645022 
121.63156660827796 
117.04161878653062 
109.28335550348591 
48.57579079158351 
108.09389644625712 
103.58793658145812 
103.76457868327256 
31.471697559110034 
113.2986697433955 
110.05397248861516 
125.19349467568378 
111.21697810183679 
122.80783083194675 
113.89304331460059 
117.50640617008843 
58.40235993696806 
105.12928019083306 
108.21678891227083 
46.73716336567103 
73.85739993442836 
137.20485316733618 
110.58434984481461 
105.37129708790691 
37.600817549477235 
118.26043759503229 
105.43896020972184 
106.13947613899641 
112.37612135540424 
39.64320814516553 
47.955571418409704 
120.18571520490106 
139.9326771933371 
84.95261763269346 
103.52365185984577 
106.91684996136331 
114.57779645943828 
108.9174027098064 
121.03921901057431 
103.14132073992747 
106.94369794905384 
81.04365480256307 
112.60092393604333 
119.33169440077046 
119.95136751255485 
113.41720832242507 
72.72763750040518 
116.33821218831353 
102.40736375705914 
102.30106028888787 
108.75768704715054 
38.728142184048544 
104.3128575879731 
33.55561339525825 
24.83685999579834 
101.71215734078163 
107.54583130820443 
144.06248657734739 
62.21130787949396 
129.37274294729244 
113.09642365987219 
89.24915205174186 
91.36005182015442 
113.3568769688691 
111.59973464510315 
116.40124736688799 
81.02400414497808 
133.97382932679827 
81.3114636710592 