# vtk DataFile Version 3.0 
Unstructured Grid 
ASCII 
DATASET UNSTRUCTURED_GRID
POINTS 1233 float 
0.5 0 0  
1 0 0  
1 1 0  
0 1 0  
0 0.5 0  
0.5 0.5 0  
0.55 0 0  
0.6 0 0  
0.65 0 0  
0.7 0 0  
0.75 0 0  
0.8 0 0  
0.85 0 0  
0.9 0 0  
0.95 0 0  
0.525 0 0  
0.575 0 0  
0.625 0 0  
0.675 0 0  
0.725 0 0  
0.775 0 0  
0.825 0 0  
0.875 0 0  
0.925 0 0  
0.975 0 0  
1 0.05 0  
1 0.1 0  
1 0.15 0  
1 0.2 0  
1 0.25 0  
1 0.3 0  
1 0.35 0  
1 0.4 0  
1 0.45 0  
1 0.5 0  
1 0.55 0  
1 0.6 0  
1 0.65 0  
1 0.7 0  
1 0.75 0  
1 0.8 0  
1 0.85 0  
1 0.9 0  
1 0.95 0  
1 0.025 0  
1 0.075 0  
1 0.125 0  
1 0.175 0  
1 0.225 0  
1 0.275 0  
1 0.325 0  
1 0.375 0  
1 0.425 0  
1 0.475 0  
1 0.525 0  
1 0.575 0  
1 0.625 0  
1 0.675 0  
1 0.725 0  
1 0.775 0  
1 0.825 0  
1 0.875 0  
1 0.925 0  
1 0.975 0  
0.95 1 0  
0.9 1 0  
0.85 1 0  
0.8 1 0  
0.75 1 0  
0.7 1 0  
0.65 1 0  
0.6 1 0  
0.55 1 0  
0.5 1 0  
0.45 1 0  
0.4 1 0  
0.35 1 0  
0.3 1 0  
0.25 1 0  
0.2 1 0  
0.15 1 0  
0.1 1 0  
0.05 1 0  
0.975 1 0  
0.925 1 0  
0.875 1 0  
0.825 1 0  
0.775 1 0  
0.725 1 0  
0.675 1 0  
0.625 1 0  
0.575 1 0  
0.525 1 0  
0.475 1 0  
0.425 1 0  
0.375 1 0  
0.325 1 0  
0.275 1 0  
0.225 1 0  
0.175 1 0  
0.125 1 0  
0.075 1 0  
0.025 1 0  
0 0.95 0  
0 0.9 0  
0 0.85 0  
0 0.8 0  
0 0.75 0  
0 0.7 0  
0 0.65 0  
0 0.6 0  
0 0.55 0  
0 0.975 0  
0 0.925 0  
0 0.875 0  
0 0.825 0  
0 0.775 0  
0 0.725 0  
0 0.675 0  
0 0.625 0  
0 0.575 0  
0 0.525 0  
0.05 0.5 0  
0.1 0.5 0  
0.15 0.5 0  
0.2 0.5 0  
0.25 0.5 0  
0.3 0.5 0  
0.35 0.5 0  
0.4 0.5 0  
0.45 0.5 0  
0.025 0.5 0  
0.075 0.5 0  
0.125 0.5 0  
0.175 0.5 0  
0.225 0.5 0  
0.275 0.5 0  
0.325 0.5 0  
0.375 0.5 0  
0.425 0.5 0  
0.475 0.5 0  
0.5 0.45 0  
0.5 0.4 0  
0.5 0.35 0  
0.5 0.3 0  
0.5 0.25 0  
0.5 0.2 0  
0.5 0.15 0  
0.5 0.1 0  
0.5 0.05 0  
0.5 0.475 0  
0.5 0.425 0  
0.5 0.375 0  
0.5 0.325 0  
0.5 0.275 0  
0.5 0.225 0  
0.5 0.175 0  
0.5 0.125 0  
0.5 0.075 0  
0.5 0.025 0  
0.70750093 0.6956974 0  
0.74098915 0.3808518 0  
0.2772981 0.7541676 0  
0.48631203 0.7755567 0  
0.7920695 0.18098614 0  
0.81983465 0.5514387 0  
0.83527184 0.82780945 0  
0.6732796 0.5603538 0  
0.6502225 0.23464122 0  
0.4031742 0.66632706 0  
0.6337259 0.85083497 0  
0.14747472 0.64770067 0  
0.14491168 0.8591226 0  
0.38469014 0.8466242 0  
0.8481892 0.69832444 0  
0.542183 0.6361351 0  
0.86261964 0.31033546 0  
0.63433784 0.4131721 0  
0.88163674 0.44013447 0  
0.6506765 0.12701236 0  
0.28058472 0.62744004 0  
0.266377 0.890746 0  
0.52052236 0.8884407 0  
0.8853813 0.10415383 0  
0.5961039 0.74288064 0  
0.7321474 0.10657057 0  
0.7534531 0.9109957 0  
0.7306364 0.49010426 0  
0.10593562 0.7633901 0  
0.6085483 0.33960903 0  
0.41244462 0.7504563 0  
0.8924015 0.9024257 0  
0.75284874 0.2653967 0  
0.90782446 0.5956855 0  
0.73421985 0.6148459 0  
0.9035777 0.22598699 0  
0.904664 0.7677448 0  
0.7560002 0.80167246 0  
0.6235837 0.6497568 0  
0.4761963 0.600626 0  
0.09405889 0.90726966 0  
0.46036786 0.90225554 0  
0.57321554 0.5612291 0  
0.9125262 0.5008957 0  
0.18869828 0.73517185 0  
0.5819982 0.20640646 0  
0.3580837 0.58597964 0  
0.4673418 0.71096164 0  
0.80884737 0.91465074 0  
0.19329327 0.5906351 0  
0.7073498 0.19763404 0  
0.6881333 0.3114111 0  
0.8100273 0.08057853 0  
0.92167765 0.37289417 0  
0.78898376 0.7223936 0  
0.18423504 0.9137875 0  
0.5955052 0.92697006 0  
0.09174431 0.68104494 0  
0.077176034 0.8196744 0  
0.33534795 0.702193 0  
0.22631912 0.808785 0  
0.33873102 0.92416656 0  
0.5554851 0.8122672 0  
0.7875255 0.44344616 0  
0.28962484 0.8032018 0  
0.8231329 0.64439607 0  
0.6710661 0.771233 0  
0.4472337 0.83958507 0  
0.5980063 0.09034859 0  
0.9051648 0.67686373 0  
0.8193783 0.37089363 0  
0.67413706 0.9246006 0  
0.6844245 0.07681677 0  
0.21334338 0.6756072 0  
0.9346366 0.29424834 0  
0.92509955 0.83952224 0  
0.5786958 0.39345044 0  
0.83912766 0.26552165 0  
0.68860036 0.40520525 0  
0.6663302 0.5010004 0  
0.542882 0.7265066 0  
0.93767685 0.158872 0  
0.93177444 0.073215485 0  
0.74769515 0.5547941 0  
0.66424096 0.16931927 0  
0.81398284 0.7749214 0  
0.85481274 0.49390808 0  
0.93743306 0.41747978 0  
0.28681663 0.5606412 0  
0.7629547 0.66944677 0  
0.5542654 0.15739225 0  
0.6945487 0.8317527 0  
0.32680076 0.76431686 0  
0.4026466 0.5715736 0  
0.8783856 0.16675018 0  
0.16518609 0.7910477 0  
0.147853 0.5463479 0  
0.49777296 0.92527354 0  
0.37162519 0.94965 0  
0.27740297 0.9445658 0  
0.8031426 0.31872594 0  
0.78311247 0.49081337 0  
0.7842517 0.1387968 0  
0.8779965 0.043310434 0  
0.6565816 0.36589628 0  
0.9404215 0.9419655 0  
0.766742 0.94874734 0  
0.64274204 0.7066805 0  
0.56707066 0.67341655 0  
0.7851117 0.8396477 0  
0.6108795 0.58173275 0  
0.7602141 0.053777907 0  
0.50265235 0.82990026 0  
0.67994595 0.6517148 0  
0.050044518 0.7343793 0  
0.14409903 0.9549447 0  
0.9394896 0.74489534 0  
0.9551314 0.54973686 0  
0.8443352 0.94729584 0  
0.6922829 0.116647094 0  
0.21273914 0.86883974 0  
0.52278024 0.5398059 0  
0.61224324 0.79180586 0  
0.53860146 0.95340276 0  
0.85792744 0.54979974 0  
0.4517896 0.75909996 0  
0.9541052 0.64298636 0  
0.4959701 0.6462069 0  
0.57732165 0.86934584 0  
0.13438222 0.70896363 0  
0.38239995 0.70804083 0  
0.27553168 0.6913406 0  
0.04763526 0.64252275 0  
0.0443123 0.85993123 0  
0.64345574 0.04124834 0  
0.87813115 0.85624826 0  
0.3436422 0.64307153 0  
0.5990114 0.51781875 0  
0.87626976 0.63548005 0  
0.79674315 0.8121981 0  
0.70189476 0.5248012 0  
0.41175634 0.801514 0  
0.5565765 0.31738317 0  
0.6906944 0.6090525 0  
0.31750926 0.8643521 0  
0.049578637 0.54816455 0  
0.048423294 0.9519149 0  
0.64600044 0.28648314 0  
0.7028146 0.24820054 0  
0.7515703 0.23299614 0  
0.06045307 0.7782968 0  
0.7482215 0.32072487 0  
0.93889374 0.88784486 0  
0.95960283 0.25405845 0  
0.8354813 0.1344427 0  
0.9581464 0.3397404 0  
0.8718733 0.37224746 0  
0.87957907 0.27221736 0  
0.222779 0.95585036 0  
0.5389708 0.4449429 0  
0.89079946 0.7162956 0  
0.14090258 0.9102957 0  
0.93933636 0.1090361 0  
0.5672007 0.7678667 0  
0.8009522 0.5835888 0  
0.7306301 0.7482025 0  
0.8054748 0.6834026 0  
0.3302315 0.54503405 0  
0.48272002 0.86530185 0  
0.09488948 0.63985497 0  
0.961578 0.4581426 0  
0.9525706 0.79959327 0  
0.42736888 0.6124512 0  
0.73493004 0.42279407 0  
0.67188543 0.8725097 0  
0.7060864 0.35773262 0  
0.23151435 0.7628894 0  
0.540292 0.22876774 0  
0.8512693 0.2083983 0  
0.5948522 0.2535501 0  
0.2276516 0.54600304 0  
0.41344976 0.7085565 0  
0.8556544 0.79130304 0  
0.70995367 0.95498025 0  
0.8538161 0.6028676 0  
0.33950177 0.8124618 0  
0.52509785 0.59386957 0  
0.1469042 0.5934557 0  
0.6289334 0.9465527 0  
0.8391179 0.8865024 0  
0.7174704 0.03803972 0  
0.22986238 0.62699443 0  
0.5612275 0.49553597 0  
0.4234322 0.874856 0  
0.08952622 0.8619968 0  
0.43466586 0.94189495 0  
0.45267665 0.5475247 0  
0.09901066 0.5470382 0  
0.5819537 0.62240237 0  
0.37762377 0.5374462 0  
0.83463174 0.41036054 0  
0.4456038 0.7890869 0  
0.9223516 0.45528558 0  
0.26270926 0.8480691 0  
0.2545995 0.78208786 0  
0.6303897 0.47640538 0  
0.77783334 0.8874281 0  
0.8040185 0.9672385 0  
0.51894397 0.6885416 0  
0.7483955 0.19018087 0  
0.31672344 0.604248 0  
0.530513 0.19706918 0  
0.60762465 0.13955858 0  
0.7253025 0.28700402 0  
0.2372208 0.7246361 0  
0.9099207 0.32825893 0  
0.19392465 0.5456197 0  
0.17298053 0.6933088 0  
0.8133572 0.45956984 0  
0.18954924 0.95625526 0  
0.36031175 0.88638216 0  
0.44810435 0.6575026 0  
0.8312855 0.7370995 0  
0.7021166 0.15704669 0  
0.09669245 0.953576 0  
0.78461766 0.41234827 0  
0.9510459 0.38075215 0  
0.55933595 0.5910324 0  
0.30383396 0.7275454 0  
0.50866145 0.74735224 0  
0.95747304 0.5021497 0  
0.55007577 0.09718909 0  
0.9093979 0.637551 0  
0.31707567 0.96106255 0  
0.2338757 0.91591716 0  
0.047317546 0.6892354 0  
0.043665346 0.82780904 0  
0.18880537 0.8307187 0  
0.54885674 0.047405235 0  
0.7005862 0.5763341 0  
0.5789813 0.95703626 0  
0.09517383 0.7221839 0  
0.66294515 0.44005072 0  
0.6141922 0.88899434 0  
0.68939126 0.7318021 0  
0.6754723 0.19976014 0  
0.6527901 0.8114979 0  
0.5348323 0.4795268 0  
0.7719615 0.09617614 0  
0.30879366 0.66557086 0  
0.5892735 0.44420958 0  
0.6240219 0.1865796 0  
0.19841255 0.6340649 0  
0.77987903 0.36143658 0  
0.8434378 0.05920409 0  
0.8967096 0.94827163 0  
0.5386745 0.3690323 0  
0.24292125 0.5891698 0  
0.628585 0.7539438 0  
0.6182276 0.37872645 0  
0.90365773 0.39877054 0  
0.71350557 0.788653 0  
0.5583294 0.9080622 0  
0.7804297 0.6269791 0  
0.83950853 0.34518284 0  
0.2980342 0.90496033 0  
0.95467174 0.84311134 0  
0.6022288 0.29848412 0  
0.12343744 0.6807311 0  
0.383109 0.6268349 0  
0.66064245 0.39415124 0  
0.64382696 0.0838445 0  
0.048727408 0.5960617 0  
0.04665361 0.9045338 0  
0.9502323 0.6900119 0  
0.14825124 0.7494789 0  
0.53912187 0.85005844 0  
0.51926005 0.7954632 0  
0.760689 0.46154624 0  
0.95745635 0.04054307 0  
0.6875636 0.03855344 0  
0.7473608 0.7090172 0  
0.95262927 0.21010745 0  
0.96151114 0.29702216 0  
0.6658759 0.95601016 0  
0.5944167 0.83056635 0  
0.9074282 0.54908496 0  
0.860118 0.90990734 0  
0.5974079 0.044619147 0  
0.5025887 0.97291684 0  
0.47258914 0.9614385 0  
0.6494315 0.5995786 0  
0.54751164 0.2749749 0  
0.24889097 0.6544037 0  
0.7459319 0.85151744 0  
0.83510023 0.29814306 0  
0.46906942 0.807535 0  
0.91628563 0.038044896 0  
0.90481335 0.18469094 0  
0.71096814 0.9042457 0  
0.9601019 0.06934663 0  
0.36643213 0.7432882 0  
0.7237735 0.066883706 0  
0.6497992 0.32710215 0  
0.86372393 0.6623046 0  
0.18284051 0.8822157 0  
0.69776076 0.464509 0  
0.90365434 0.80872697 0  
0.7219786 0.6578362 0  
0.3468349 0.9715031 0  
0.40929115 0.5265238 0  
0.9635657 0.4266556 0  
0.63748753 0.54031086 0  
0.7889096 0.046223544 0  
0.58641016 0.7130934 0  
0.12256787 0.80728704 0  
0.20414913 0.7737924 0  
0.67758584 0.28247443 0  
0.3666511 0.6813699 0  
0.97551537 0.9572611 0  
0.8243451 0.17512041 0  
[...]
POINT_DATA 1233 
SCALARS fi float 
LOOKUP_TABLE default 
0.4999999999991568 
0.4999999999934747 
-2.0111038137121516e-18 
9.021855163496015e-12 
2.1984176491355317e-13 
6.13116772205714e-11 
0.9999999999985508 
0.9999999999997826 
1.0000000000000189 
0.999999999999999 
0.9999999999999829 
1.0000000000006724 
0.999999999999744 
1.0000000000001708 
0.9999999999973411 
0.5530851645184441 
1.0669717096907099 
0.980560359361409 
1.0061673021045916 
0.9978581362506606 
1.0001817121027754 
1.036798178361706 
0.9170520149549124 
1.1784644367050767 
0.35147377390517426 
2.3083105286273735e-11 
1.598950080029998e-11 
1.2357193636489886e-11 
8.122487304648033e-12 
5.468657305399703e-12 
3.671297890982532e-12 
2.479508733071807e-12 
1.1471894220948281e-12 
5.468732143591784e-13 
2.814929596606345e-13 
1.3260898691691746e-13 
5.5285151564064684e-14 
2.8086874356477302e-14 
1.7245418749907008e-14 
9.447833687920762e-15 
4.166549523221583e-15 
-2.465128123624839e-17 
6.148935395679295e-16 
4.590658288288321e-19 
0.5573500896468729 
0.18713008654479737 
0.15510148796070397 
0.11472698063742101 
0.0955925937108639 
0.0688623279669766 
0.040159205898561624 
0.013600165885373541 
0.010165589548313385 
0.005276646508982672 
0.00231833034596445 
0.0009655192460849511 
0.0005691435384978357 
0.00028399744505015767 
0.0001384184392371629 
0.00010773493443890213 
-1.290021119925487e-5 
1.173741335478041e-5 
-5.345749645784803e-7 
-2.4778872875407327e-7 
6.1150507243426e-17 
-7.029307800465776e-16 
-3.7851590765218363e-16 
1.543291825119313e-15 
2.7416604712443994e-14 
9.695312147028186e-14 
5.145397921047301e-13 
1.2063895000298453e-12 
2.2249416072475272e-12 
3.4755322475842916e-12 
6.977059048391002e-12 
1.097096103042276e-11 
8.938242736070292e-12 
1.3886056751788938e-11 
1.7474101549712096e-11 
1.395625774876282e-11 
1.4717167574013813e-11 
1.4409834729888018e-11 
1.9083684369489968e-11 
-2.3276806210119693e-7 
-7.599080310218316e-7 
2.1997044187297267e-5 
7.301352798568779e-5 
0.0004636878441614193 
0.001745533354245249 
0.006072966825085996 
0.012226603398879696 
0.030369223336056198 
0.05309114298555004 
0.08904602309625563 
0.10293779486349414 
0.1380111819451868 
0.20495446563577638 
0.1841083492592484 
0.20695476456825804 
0.23584645758148623 
0.23952565046597196 
0.23112446329159228 
0.04978937872649159 
4.132463837139784e-11 
5.295869896141239e-11 
5.997790507990593e-11 
5.668149034148609e-11 
4.7271311330915255e-11 
2.8970311351994667e-11 
1.4467623512961635e-11 
5.556868605745257e-12 
1.5958642071940565e-12 
0.3173842005575899 
0.5906396271370977 
0.7004559256722126 
0.7069674067283997 
0.6081379208405833 
0.4451668977827666 
0.265054913330854 
0.11957516734832146 
0.04103374549125326 
0.009157697345248267 
3.4681975019052396e-13 
1.760720482616088e-13 
1.5467954772746475e-13 
1.2871785876357447e-13 
2.53662932865559e-13 
3.0216929943501824e-13 
5.35629712642515e-13 
8.922777192106236e-13 
1.3161764348307424e-12 
0.0018182306281058153 
0.0046364919645372 
0.00314359138709715 
0.0027300522154379025 
0.002175147183561908 
0.0026474434387851738 
0.0042517015874309035 
0.004671044222192545 
0.04904464105086471 
-0.14496863575799318 
5.1077439375492656e-11 
4.3827718127475615e-11 
4.4629596065563936e-11 
4.241513165707489e-11 
3.3971292741712185e-11 
2.6068463761409606e-11 
2.6961316548374983e-11 
2.4302140662100873e-11 
2.454641110509862e-11 
0.7670943634164809 
0.7642583237080428 
0.6533795035193801 
0.5120773922314609 
0.5069492148533185 
0.4911678265487443 
0.4125541195184758 
0.3809379154247919 
0.37441068783666265 
0.5898899957338362 
0.38222264497871355 
0.9815227094860395 
0.832080091705556 
0.6999865130092953 
1.0014094143709047 
0.39368539071330805 
0.004386597526972775 
0.8773771567949425 
1.007243626750026 
0.8522326370936311 
0.14833319059885133 
0.22616624066525903 
0.7820569303809501 
0.6323786482588397 
0.04019023695931702 
0.9284664578733317 
0.8438347964379671 
0.9905181740174183 
0.40141340498669187 
0.9987419279980247 
0.2829553701902408 
0.6198557143457082 
0.2577642967384397 
0.9937962919804118 
0.5632177474997189 
1.0005603822882734 
0.006027798732647409 
0.8894344480504967 
0.6385484213771371 
0.9960062131797887 
0.8564835453717743 
7.219303426254035e-5 
1.0002521272065839 
0.03959645587501512 
0.5530011978155874 
0.8219736414138945 
0.0013867702877969036 
0.052508447364799045 
0.783170559328488 
0.8863204813583918 
0.586890465436472 
0.307427918224712 
0.9771391866890519 
0.12490090578519263 
0.6693723601303996 
0.9305627959012713 
0.2275558439734119 
0.8816020353460627 
0.001222147941865426 
0.07178164907173668 
1.0013439411107432 
1.0010585605409432 
1.006853466399806 
0.33438152250979697 
0.098132900379751 
0.5912666710774598 
0.07213086285528922 
0.31179997282184396 
0.774781502925429 
0.8054989707431577 
0.8246623207904716 
0.4112152592124731 
0.42500879328244784 
0.8367988732344628 
0.8265536014456369 
0.14987616298299503 
0.26170880048224554 
0.5570174457699473 
0.970456659541834 
0.01063473872870612 
0.8782417099788512 
0.02342304009736447 
0.9995098678655975 
0.4251506980758897 
0.4334133642374337 
8.797279668378295e-5 
0.9652865164973837 
0.9618944202005909 
0.9933052028863787 
0.9577795807759653 
0.7410141101890361 
0.7589678933236547 
0.9430818774372866 
0.6920271093766461 
0.9973492428295354 
0.024211400749530522 
0.39414154260944606 
0.15963711678108825 
0.04872413740142128 
0.2746246890158409 
0.8865833020038272 
0.08987401086527895 
0.8623998451382603 
0.28012386504041487 
0.9802647620162952 
0.7919212573279306 
0.016631432436285416 
0.1850337529443755 
0.3094384794596531 
0.4026194494879432 
0.9668623954856725 
0.7396941443657192 
1.0034479959710163 
0.9744617799723158 
0.996995577146734 
2.069878296281093e-6 
0.0019995532657923346 
0.554968013139601 
0.8333483188102864 
0.013463140957424761 
0.9305659446468865 
1.0003835621797392 
0.48158912328870007 
0.6231688211757168 
0.6060027868673712 
0.5149711368251052 
0.0006446194820254817 
0.014585319178006897 
0.00012416306130537134 
1.000136902769295 
0.7253756884042063 
0.9894400834492049 
0.3520253983380027 
0.09256095210875075 
0.23211464059061582 
0.7992556005117379 
0.0027461302834471952 
0.9432237892918156 
0.20439377882980325 
0.5041149391736178 
0.8847003138269081 
0.629016509331826 
0.2065709853152989 
0.817387761952168 
0.9976486467508228 
0.0004793327090976196 
0.5512878827483432 
0.9802510533726697 
0.05322575417283541 
0.01784443554758314 
0.8878272646879773 
0.7379779899708409 
0.9160287228896821 
0.7205651909988113 
0.6586158000730621 
0.025199922289584162 
0.5551969611362924 
1.0029926614828417 
0.9994592647432903 
1.001245979642166 
0.7135847267604565 
0.9951876221188933 
1.0956555873804099e-5 
0.33261915991306507 
0.9947509467783345 
0.1841394611758444 
0.6532653232988466 
0.846424684740139 
0.46861786581877585 
1.0757886101863614 
0.008038303358859814 
0.6388499385420338 
0.8514929687995578 
0.5512629966295625 
0.3796439895977345 
0.17219459216861085 
0.12479245068659624 
0.041519454448770976 
0.39846532433761567 
0.16594089560373368 
0.04317642669732412 
8.2560652570523e-5 
0.7246390666584286 
0.9614044278815598 
0.06538608203187742 
0.9977475797589056 
0.8022971887642882 
0.8877557075597704 
0.981176723156508 
0.943624116482747 
0.018265932449277277 
0.90252089597114 
0.005263686801138541 
0.006118757130403918 
0.13936830569727673 
0.7833466973211842 
0.9624845987845376 
0.0695217072081524 
0.02968236528601262 
0.0008984654027035963 
0.9997169714874827 
0.20657443420853447 
0.9966693208678474 
0.4723379386245924 
0.6900383895106352 
0.2166530117676338 
0.3515397524495999 
0.016454987885154433 
0.9070647352265905 
0.05611155846066459 
0.7402353132981586 
0.7260153764864437 
0.16109591912534846 
0.7496677237102412 
0.8356739979146666 
1.000346584948059 
0.005695580569936439 
0.00026930638544346455 
0.8695651990960664 
1.0020523716451168 
0.23235794420311173 
0.7847957139553761 
0.9880091547604906 
1.0006487446613808 
0.704445813132786 
0.5309042647695678 
0.01624315926176447 
0.4554249159617582 
0.7023786061251492 
0.4833355101253056 
0.5351608039985714 
0.9178681118532206 
0.03146390454139896 
1.0008020290819004 
0.488696059263244 
0.8991435514652645 
0.15507440393153668 
0.959024986012885 
0.8166972201270994 
0.7445706750217416 
0.027793176468124237 
0.9031887612896756 
0.018806945467820493 
0.37327230546454176 
0.5589767100647643 
0.39759892142132414 
0.8300914569607988 
0.7943230350390382 
0.9044952116113794 
0.7813760279109946 
0.05838030301393182 
0.4786691254124411 
0.9910434489872161 
0.10819166087553543 
0.32605626348826805 
1.0003187347658844 
0.19969232410424692 
0.9891966089650792 
1.0029339461529767 
0.5762664286076241 
0.9461737917367578 
0.9965090868294375 
0.20597122812677338 
0.9622369220630754 
0.9901660116088834 
4.254103386580584e-6 
1.0189247675240423 
0.08880530208496568 
0.433773913165137 
1.0070876120679435 
0.38301039355688077 
0.1282625317314207 
0.14865565808570913 
0.33294502301999823 
0.8622261395331813 
0.5340180189722487 
2.4676298083230925e-5 
0.9677632899939302 
0.3559796294348049 
0.602281582750369 
0.9966139026811076 
1.0020740252025093 
0.08334324734476836 
0.7416197879523616 
0.0013037051207532835 
0.6894069938190699 
0.3341504404341418 
0.5675050894353859 
0.8736095612433211 
0.7675678929124694 
1.0013769708786548 
0.21960130551084783 
0.4943872605577094 
0.23696749614450996 
0.01832461550678441 
0.27538649569707 
0.0789724100106462 
0.0002249630680214704 
0.9950088357711133 
0.10163152711441314 
0.17270602397712498 
0.8458721215316208 
0.9929158958004723 
0.3693989065936816 
0.025868964729766547 
0.939047459029748 
0.6275148706473602 
1.0648573559679533 
0.8893308944836732 
0.018596094795878076 
0.6976903790176616 
0.8784190709308753 
1.0000829716610706 
0.9986986793121215 
0.04861450537645564 
0.701822941513913 
0.963196308987949 
0.0006384014829647231 
0.4557733113937264 
0.28289861646691045 
0.0474687634435378 
0.058910087062849475 
0.9511249957946744 
1.0059563951777537 
0.6867415639700669 
0.7923757875280839 
0.7975255255347299 
0.9986109008584594 
0.8097032636826779 
-6.579602634906073e-7 
0.9973748341880223 
0.9925093858355583 
0.3799298067407169 
0.0068489176749012785 
0.7916469058959128 
0.9985195138297417 
0.004561406238530054 
0.6799791100986621 
0.5578483479737714 
0.5705213375767852 
0.8524516947276606 
0.06246712032869789 
-3.0313681324590143e-7 
1.0200373402878182 
1.0391916637141458 
0.048221563814623 
0.9587374276575699 
0.5255391417955864 
0.9651243494232168 
0.07399784077363389 
1.0014443689367734 
0.8161294096627989 
0.006644482323096136 
9.384392016874298e-5 
0.6296702521978308 
0.9613346655497044 
0.9345117430515362 
0.8891916632249345 
0.9293697663232342 
0.29501407015209624 
0.46088256009127815 
0.2991734197091935 
0.004494464217425901 
0.008112039663255808 
0.015728518972450502 
0.009064412145490192 
0.00016099728409676544 
0.0007080375423293922 
0.0007672508105990581 
0.9868668269802131 
1.0006006111311156 
0.9982203467610046 
0.9801368550145357 
0.8097784495365357 
0.9408927448014176 
0.9743072763706043 
0.9938881536935531 
0.8081944726889534 
0.9440840453604245 
0.936961202688774 
0.8589207075726338 
0.9830667810121697 
0.9951247120922692 
0.9922281115367003 
0.9727744288516474 
0.007585201142403876 
0.006302094621386234 
0.020331837092554757 
0.8105725693098615 
0.5243654939926242 
0.5699205031316957 
0.270817886999883 
0.14286958152386442 
0.24456252342692006 
0.40038363745126315 
1.4930350893445648e-5 
5.325777717591333e-5 
6.315243195970447e-6 
0.22060036933127836 
0.2554063854130511 
0.35725507457472794 
0.32169731607498614 
0.002996683593069131 
0.011074937733958939 
0.010816889787008387 
0.0034501080553338962 
0.15919185815031986 
0.26111775385922953 
0.35941461563853067 
0.2377157153357316 
0.9641753540890953 
0.9654625556650833 
0.9951615980304649 
0.9745286095453073 
1.0003432637841732 
1.0003557852942453 
1.0012831263440234 
0.9993753172129305 
0.7261777075461898 
0.7090274428701027 
0.7929149232376157 
0.8096206120684355 
0.7541552663228483 
0.7779498048206961 
0.6793166043864289 
0.7489266435201861 
0.015239413944564503 
0.03575945325438913 
0.018919365742845345 
0.007518183979190498 
0.01579946185571993 
0.005535405539612727 
0.999609471937634 
0.9734561882511426 
0.9939826001451109 
0.990220646872996 
0.08567972499264309 
0.05792306518949537 
0.027765356236200085 
0.043816907718959776 
0.30364288337244 
0.36284544950071346 
0.5046339521220411 
0.442970906087821 
0.020943136027037745 
0.011740378697701444 
0.004844012100709395 
0.17311756399573383 
0.13804088590321975 
0.07727717681820075 
0.10128064580582048 
0.9994383611024084 
0.9999113932483429 
1.0000573608421466 
0.5158492963204719 
0.556593107527758 
0.6870842174971743 
0.6520719242285627 
0.010105202391988581 
0.04404147924991821 
0.011082643380159234 
0.9835844593651543 
0.9647791932596885 
0.984991494568041 
0.9940693303698496 
0.13735445382110797 
0.19204728594081413 
0.23276267812724538 
0.06646772660257763 
0.11450193284346866 
0.2568997370912546 
0.1659353766221937 
5.03237702714213e-5 
0.000915669707514475 
0.00016168225847317132 
0.7659951802708231 
0.7154599178144263 
0.8127506587138215 
0.8544028982341859 
-6.822885829852374e-6 
2.460507568290347e-6 
1.1374342486126873e-5 
0.10010168761658361 
0.1447236995706336 
0.30811616737474984 
0.7003506091583788 
0.5102826096859308 
0.30071103923561815 
0.5587064567038463 
0.8176520496042206 
0.7721787925256333 
0.47913901890206834 
0.3983747963440359 
0.478375158758968 
0.38957451800059023 
0.5417142714726811 
0.6735323597951774 
0.6418479882577441 
6.022650648542496e-6 
5.642150979272754e-6 
2.9249969038402148e-5 
2.9563829027406668e-5 
0.1965256210671237 
0.11618260957769683 
0.14092887205383944 
0.005901670560058435 
0.0026503466217327088 
0.001325538390897216 
0.8616910915411661 
0.8404206258360513 
0.6019473783842771 
0.6827720051298298 
0.3163500289006703 
0.3727736883542894 
0.4874805173601193 
0.5189021531875547 
0.2728300232732763 
0.00021054666755145228 
6.390470681197375e-5 
5.406383487548765e-5 
0.00025420787758883456 
0.9357066277007859 
0.979043616761241 
0.9460501876066604 
0.05068553346350248 
0.1080463559635233 
0.08451677834911583 
0.0374635049705103 
0.310851965076493 
0.4745123603637268 
0.4805994518321303 
0.3456600711288296 
0.3289687627759019 
0.20495094333614525 
0.009290818783278386 
0.0036408958352824035 
0.0022077249661180127 
0.6002061225998765 
0.5787558912248245 
0.6900886142305069 
0.8166321486107815 
0.7900734765940489 
0.7094505910346964 
0.17704351281830083 
0.15551256944586075 
0.28705045711112925 
0.4637272877043666 
0.7017320289313633 
0.7931396105621421 
0.8173134638531341 
0.7883874301443036 
0.7746898443579774 
0.03468863351379458 
0.015655999110427556 
0.03639144931814839 
0.07041347831026176 
0.4393567266086362 
0.5410857901196346 
0.45410109661720116 
0.3543867257434338 
0.6807331350701394 
0.7481013078721171 
0.7945495192788323 
0.7454441861052026 
0.098748066757416 
0.07145867566435023 
0.20115766850621 
0.8862236486632905 
0.8997272031451649 
0.844112173923587 
0.8311245758720717 
0.6254356120999409 
0.8108971357879561 
0.6768666600157339 
1.0010089982624115 
0.9955412091237591 
1.0010686399139892 
0.5951304719979269 
0.4942554892629944 
0.47793582447862115 
0.4915326102850076 
0.39485431217588507 
0.1517800597135513 
0.24659234911249003 
0.11118503551943489 
-1.5581491703593004e-6 
0.022249474374785916 
0.03576309388228603 
0.24821969422031925 
0.6573520882139113 
0.4066855417459555 
1.0764403466554961 
1.0197814259997304 
0.954507419943089 
0.5739105026457899 
0.019117722114475447 
0.0317188776871855 
0.9963149493912992 
0.997663089663668 
1.0009198176350604 
1.0004311198630393 
0.6461561615568212 
0.7376856659292788 
0.584228981762951 
0.4262231002833835 
0.45280972203235587 
0.5707821022745982 
0.6848764801159 
0.5751104145069063 
0.43943044094995626 
0.8707376006203994 
0.930025779401556 
0.9284895258386379 
0.9877563458882566 
0.9579114469661286 
1.0027090929515652 
0.9551972294556239 
0.8996997223519748 
0.8541282768598917 
1.004925612740242 
1.0125419333493824 
0.8916430082093783 
0.9871639296711622 
0.7231388282804152 
0.8139738458459076 
0.8564137279685407 
0.7753789745521629 
0.6636126617116569 
0.06318374163352498 
0.7376692838276321 
0.0009652327232169475 
0.005213188723904531 
0.0020697834660704456 
0.8455776643968739 
0.7438897073459619 
0.8044811253811797 
0.23850371225540618 
0.2071150978318929 
0.12755378950936774 
0.15121991041101085 
0.9965525894398083 
0.9731347760809593 
0.7639696028225785 
0.732372298647191 
0.8037859369135846 
0.9913428146242604 
0.9905635207187605 
1.001948923978956 
0.9796033828377786 
0.19424560844732397 
0.1150936472394609 
0.06594057888003742 
0.13051580718276456 
0.8784248568649846 
1.001880338351104 
1.0007395481473975 
0.9983678641076558 
0.06953428475233525 
0.024739063336620862 
0.04618181373558687 
0.7711400165393149 
0.810162474694996 
0.7987039756751796 
0.8839075901587142 
0.012644404209778595 
1.0012605526762561 
1.0038232189317873 
1.0056632654013447 
1.0011433891873522 
0.9629521038621361 
0.9267584511218374 
0.8823399970680106 
0.0033978736408260333 
0.6761544211451869 
0.8892871787346065 
0.9192009649923714 
0.8537302342556929 
0.8631794596262691 
0.8947804810582543 
0.9397526748113578 
0.9211772912195115 
0.7171873754813157 
0.594534146880817 
0.00012322961104440744 
0.00045329022427117863 
0.0006453997124095352 
0.00020089079634252806 
0.5624852874374734 
0.42381342037984887 
0.3820378198275649 
0.9984401692570487 
1.0008993279429892 
0.9996835941022262 
0.9993686552545916 
0.372005613563314 
0.4326995178542949 
0.5863215903199692 
0.6327905371148722 
0.27159164834776744 
0.39265341655884844 
0.3450530616179091 
0.2297848107434436 
0.5580531346732288 
0.4993247633772788 
0.4514886808038953 
0.7068465475316625 
0.8110517588019465 
0.7388481639876272 
0.6026644318779647 
1.001077723290503 
1.0020888572357836 
1.0013873898909638 
0.39411043511575966 
0.16157478718156146 
2.8546671677305542e-5 
0.00023969870181151048 
0.3873839816991241 
0.18265825398873525 
0.24677891451891107 
0.8362078056932177 
0.9191638187731109 
0.9726794353728941 
0.5620953631908139 
0.6113289282046833 
0.6407469958666016 
0.9134302888869724 
0.9347153952244136 
0.3127503985622366 
0.9546817647924721 
0.94709006973392 
0.5929661448289743 
0.5561571700738642 
0.4411491531068335 
0.9208445756051417 
0.743580013576317 
0.8234062753063239 
0.876715250758134 
0.825696355641948 
0.7801764043492665 
0.6683311881837658 
0.6332929370201402 
0.5499924657213576 
0.4498390415845462 
0.7521107807023182 
0.8335466284225836 
1.000002483866407 
0.9998942004246248 
1.0003436466717652 
0.2933303795147946 
0.49423660791268254 
0.40846146733826355 
0.29487143952295447 
0.00047737109355579314 
0.00023038067088996335 
0.9999521446330971 
1.0018990353682609 
1.0011933595250873 
1.006759741618438 
1.0019982358060722 
0.34621502855865643 
0.4874226699754588 
0.33167217180433 
0.9191398308789748 
0.669362929710748 
0.6882642298343838 
0.8840727397715678 
0.5532122999738073 
0.6526919517124727 
0.004242177413616898 
0.007502424222238662 
0.027912737612617446 
0.017462544926653202 
0.014260527290574813 
0.001867404065914936 
0.263661323111541 
0.5124413457273502 
0.005073765914471683 
0.0009198510585556176 
0.0009091106018417424 
0.25577563296281053 
0.21755827009577272 
0.19439223190942329 
0.8259639750952312 
0.6157019048058759 
0.7651256020004359 
0.8190211648661606 
0.100943758682842 
0.07528926212127149 
0.7106836166244223 
0.7224920318535989 
0.5775427998513625 
0.05664910116730922 
0.03728664323976113 
0.009942038130007201 
0.05447885430992179 
0.014930970723638358 
0.029332170862634028 
0.8819599556796414 
0.9585987780941261 
0.9999498540595021 
0.999804718838487 
0.9989377301298095 
0.019994966292602268 
0.06465826287009196 
0.62875530019155 
0.7979184328585518 
0.85878497029728 
0.951310557614171 
0.8457591172578693 
0.03489847577479206 
0.0634902001862457 