# vtk DataFile Version 3.0 
Unstructured Grid 
ASCII 
DATASET UNSTRUCTURED_GRID
POINTS 10054 float 
0.5 0 0  
1 0 0  
1 1 0  
0 1 0  
0 0.5 0  
0.5 0.5 0  
0.51 0 0  
0.52 0 0  
0.53 0 0  
0.54 0 0  
0.55 0 0  
0.56 0 0  
0.57 0 0  
0.58 0 0  
0.59 0 0  
0.6 0 0  
0.61 0 0  
0.62 0 0  
0.63 0 0  
0.64 0 0  
0.65 0 0  
0.66 0 0  
0.67 0 0  
0.68 0 0  
0.69 0 0  
0.7 0 0  
0.71 0 0  
0.72 0 0  
0.73 0 0  
0.74 0 0  
0.75 0 0  
0.76 0 0  
0.77 0 0  
0.78 0 0  
0.79 0 0  
0.8 0 0  
0.81 0 0  
0.82 0 0  
0.83 0 0  
0.84 0 0  
0.85 0 0  
0.86 0 0  
0.87 0 0  
0.88 0 0  
0.89 0 0  
0.9 0 0  
0.91 0 0  
0.92 0 0  
0.93 0 0  
0.94 0 0  
0.95 0 0  
0.96 0 0  
0.97 0 0  
0.98 0 0  
0.99 0 0  
1 0.01 0  
1 0.02 0  
1 0.03 0  
1 0.04 0  
1 0.05 0  
1 0.06 0  
1 0.07 0  
1 0.08 0  
1 0.09 0  
1 0.1 0  
1 0.11 0  
1 0.12 0  
1 0.13 0  
1 0.14 0  
1 0.15 0  
1 0.16 0  
1 0.17 0  
1 0.18 0  
1 0.19 0  
1 0.2 0  
1 0.21 0  
1 0.22 0  
1 0.23 0  
1 0.24 0  
1 0.25 0  
1 0.26 0  
1 0.27 0  
1 0.28 0  
1 0.29 0  
1 0.3 0  
1 0.31 0  
1 0.32 0  
1 0.33 0  
1 0.34 0  
1 0.35 0  
1 0.36 0  
1 0.37 0  
1 0.38 0  
1 0.39 0  
1 0.4 0  
1 0.41 0  
1 0.42 0  
1 0.43 0  
1 0.44 0  
1 0.45 0  
1 0.46 0  
1 0.47 0  
1 0.48 0  
1 0.49 0  
1 0.5 0  
1 0.51 0  
1 0.52 0  
1 0.53 0  
1 0.54 0  
1 0.55 0  
1 0.56 0  
1 0.57 0  
1 0.58 0  
1 0.59 0  
1 0.6 0  
1 0.61 0  
1 0.62 0  
1 0.63 0  
1 0.64 0  
1 0.65 0  
1 0.66 0  
1 0.67 0  
1 0.68 0  
1 0.69 0  
1 0.7 0  
1 0.71 0  
1 0.72 0  
1 0.73 0  
1 0.74 0  
1 0.75 0  
1 0.76 0  
1 0.77 0  
1 0.78 0  
1 0.79 0  
1 0.8 0  
1 0.81 0  
1 0.82 0  
1 0.83 0  
1 0.84 0  
1 0.85 0  
1 0.86 0  
1 0.87 0  
1 0.88 0  
1 0.89 0  
1 0.9 0  
1 0.91 0  
1 0.92 0  
1 0.93 0  
1 0.94 0  
1 0.95 0  
1 0.96 0  
1 0.97 0  
1 0.98 0  
1 0.99 0  
0.99 1 0  
0.98 1 0  
0.97 1 0  
0.96 1 0  
0.95 1 0  
0.94 1 0  
0.93 1 0  
0.92 1 0  
0.91 1 0  
0.9 1 0  
0.89 1 0  
0.88 1 0  
0.87 1 0  
0.86 1 0  
0.85 1 0  
0.84 1 0  
0.83 1 0  
0.82 1 0  
0.81 1 0  
0.8 1 0  
0.79 1 0  
0.78 1 0  
0.77 1 0  
0.76 1 0  
0.75 1 0  
0.74 1 0  
0.73 1 0  
0.72 1 0  
0.71 1 0  
0.7 1 0  
0.69 1 0  
0.68 1 0  
0.67 1 0  
0.66 1 0  
0.65 1 0  
0.64 1 0  
0.63 1 0  
0.62 1 0  
0.61 1 0  
0.6 1 0  
0.59 1 0  
0.58 1 0  
0.57 1 0  
0.56 1 0  
0.55 1 0  
0.54 1 0  
0.53 1 0  
0.52 1 0  
0.51 1 0  
0.5 1 0  
0.49 1 0  
0.48 1 0  
0.47 1 0  
0.46 1 0  
0.45 1 0  
0.44 1 0  
0.43 1 0  
0.42 1 0  
0.41 1 0  
0.4 1 0  
0.39 1 0  
0.38 1 0  
0.37 1 0  
0.36 1 0  
0.35 1 0  
0.34 1 0  
0.33 1 0  
0.32 1 0  
0.31 1 0  
0.3 1 0  
0.29 1 0  
0.28 1 0  
0.27 1 0  
0.26 1 0  
0.25 1 0  
0.24 1 0  
0.23 1 0  
0.22 1 0  
0.21 1 0  
0.2 1 0  
0.19 1 0  
0.18 1 0  
0.17 1 0  
0.16 1 0  
0.15 1 0  
0.14 1 0  
0.13 1 0  
0.12 1 0  
0.11 1 0  
0.1 1 0  
0.09 1 0  
0.08 1 0  
0.07 1 0  
0.06 1 0  
0.05 1 0  
0.04 1 0  
0.03 1 0  
0.02 1 0  
0.01 1 0  
0 0.99 0  
0 0.98 0  
0 0.97 0  
0 0.96 0  
0 0.95 0  
0 0.94 0  
0 0.93 0  
0 0.92 0  
0 0.91 0  
0 0.9 0  
0 0.89 0  
0 0.88 0  
0 0.87 0  
0 0.86 0  
0 0.85 0  
0 0.84 0  
0 0.83 0  
0 0.82 0  
0 0.81 0  
0 0.8 0  
0 0.79 0  
0 0.78 0  
0 0.77 0  
0 0.76 0  
0 0.75 0  
0 0.74 0  
0 0.73 0  
0 0.72 0  
0 0.71 0  
0 0.7 0  
0 0.69 0  
0 0.68 0  
0 0.67 0  
0 0.66 0  
0 0.65 0  
0 0.64 0  
0 0.63 0  
0 0.62 0  
0 0.61 0  
0 0.6 0  
0 0.59 0  
0 0.58 0  
0 0.57 0  
0 0.56 0  
0 0.55 0  
0 0.54 0  
0 0.53 0  
0 0.52 0  
0 0.51 0  
0.01 0.5 0  
0.02 0.5 0  
0.03 0.5 0  
0.04 0.5 0  
0.05 0.5 0  
0.06 0.5 0  
0.07 0.5 0  
0.08 0.5 0  
0.09 0.5 0  
0.1 0.5 0  
0.11 0.5 0  
0.12 0.5 0  
0.13 0.5 0  
0.14 0.5 0  
0.15 0.5 0  
0.16 0.5 0  
0.17 0.5 0  
0.18 0.5 0  
0.19 0.5 0  
0.2 0.5 0  
0.21 0.5 0  
0.22 0.5 0  
0.23 0.5 0  
0.24 0.5 0  
0.25 0.5 0  
0.26 0.5 0  
0.27 0.5 0  
0.28 0.5 0  
0.29 0.5 0  
0.3 0.5 0  
0.31 0.5 0  
0.32 0.5 0  
0.33 0.5 0  
0.34 0.5 0  
0.35 0.5 0  
0.36 0.5 0  
0.37 0.5 0  
0.38 0.5 0  
0.39 0.5 0  
0.4 0.5 0  
0.41 0.5 0  
0.42 0.5 0  
0.43 0.5 0  
0.44 0.5 0  
0.45 0.5 0  
0.46 0.5 0  
0.47 0.5 0  
0.48 0.5 0  
0.49 0.5 0  
0.5 0.49 0  
0.5 0.48 0  
0.5 0.47 0  
0.5 0.46 0  
0.5 0.45 0  
0.5 0.44 0  
0.5 0.43 0  
0.5 0.42 0  
0.5 0.41 0  
0.5 0.4 0  
0.5 0.39 0  
0.5 0.38 0  
0.5 0.37 0  
0.5 0.36 0  
0.5 0.35 0  
0.5 0.34 0  
0.5 0.33 0  
0.5 0.32 0  
0.5 0.31 0  
0.5 0.3 0  
0.5 0.29 0  
0.5 0.28 0  
0.5 0.27 0  
0.5 0.26 0  
0.5 0.25 0  
0.5 0.24 0  
0.5 0.23 0  
0.5 0.22 0  
0.5 0.21 0  
0.5 0.2 0  
0.5 0.19 0  
0.5 0.18 0  
0.5 0.17 0  
0.5 0.16 0  
0.5 0.15 0  
0.5 0.14 0  
0.5 0.13 0  
0.5 0.12 0  
0.5 0.11 0  
0.5 0.1 0  
0.5 0.09 0  
0.5 0.08 0  
0.5 0.07 0  
0.5 0.06 0  
0.5 0.05 0  
0.5 0.04 0  
0.5 0.03 0  
0.5 0.02 0  
0.5 0.01 0  
0.7083776 0.70571774 0  
0.7490302 0.4245358 0  
0.25547853 0.7499773 0  
0.4849231 0.76931924 0  
0.78530693 0.2155152 0  
0.8263753 0.58092695 0  
0.82801056 0.82841945 0  
0.65358096 0.5546537 0  
0.62510705 0.84211683 0  
0.65634644 0.30025217 0  
0.3787049 0.65560246 0  
0.6496289 0.1497724 0  
0.36176586 0.85256356 0  
0.14851977 0.6494855 0  
0.14704801 0.8519029 0  
0.5371363 0.63875705 0  
0.8587216 0.3350812 0  
0.8693868 0.7043311 0  
0.87326795 0.46397805 0  
0.87520325 0.12634462 0  
0.62500113 0.43177634 0  
0.26217332 0.6210581 0  
0.51501167 0.8827512 0  
0.730533 0.8867606 0  
0.5960789 0.73397845 0  
0.25507003 0.8873148 0  
0.7499079 0.10896132 0  
0.108819515 0.7485123 0  
0.89205563 0.23236853 0  
0.7575616 0.32299915 0  
0.8987432 0.89866894 0  
0.38653407 0.7549507 0  
0.7462073 0.5235261 0  
0.5956752 0.22639276 0  
0.4518892 0.5950001 0  
0.7384548 0.6171712 0  
0.63455164 0.64608276 0  
0.74301255 0.79196084 0  
0.9070299 0.6207157 0  
0.90679616 0.78637457 0  
0.43056685 0.91098326 0  
0.46265015 0.6844013 0  
0.58911455 0.08709141 0  
0.6993552 0.22412066 0  
0.5873164 0.35340267 0  
0.08696203 0.588235 0  
0.08662377 0.9133762 0  
0.8122767 0.913572 0  
0.56613445 0.555718 0  
0.9151023 0.5358608 0  
0.7879094 0.6858672 0  
0.33871257 0.5829352 0  
0.5906886 0.91681105 0  
0.91742855 0.39267907 0  
0.68394196 0.37668586 0  
0.19309959 0.5808205 0  
0.30526125 0.6882331 0  
0.55131185 0.8119532 0  
0.18255381 0.71715033 0  
0.66446114 0.77341247 0  
0.32563046 0.9208014 0  
0.18442652 0.92160076 0  
0.43938145 0.8316505 0  
0.68058175 0.078152314 0  
0.29119498 0.8189163 0  
0.075931214 0.6813202 0  
0.0773366 0.8218111 0  
0.8233679 0.40177724 0  
0.2156892 0.814981 0  
0.6893697 0.4730263 0  
0.66551113 0.92366314 0  
0.81958157 0.07475926 0  
0.92504954 0.29985505 0  
0.8131539 0.7553672 0  
0.92682254 0.073790364 0  
0.573337 0.48360118 0  
0.8021452 0.47562256 0  
0.5729097 0.15817489 0  
0.5283545 0.7121207 0  
0.83109385 0.26995632 0  
0.92885065 0.1714702 0  
0.8084668 0.14987445 0  
0.5699054 0.2873056 0  
0.23734702 0.6822354 0  
0.93482333 0.6816544 0  
0.3202194 0.75935555 0  
0.8386551 0.6466334 0  
0.68786436 0.8354846 0  
0.93523127 0.84484035 0  
0.93525183 0.47417825 0  
0.7385706 0.17401499 0  
0.5639235 0.4135662 0  
0.8518203 0.52577883 0  
0.15778454 0.78994435 0  
0.39887795 0.5635609 0  
0.48591867 0.93783724 0  
0.5045574 0.5616344 0  
0.6328872 0.4946391 0  
0.747752 0.2618301 0  
0.28162414 0.5611001 0  
0.757937 0.9396835 0  
0.85747665 0.18322454 0  
0.6808778 0.60742223 0  
0.5847056 0.67372245 0  
0.7601696 0.7369718 0  
0.13864899 0.5589242 0  
0.771752 0.8443792 0  
0.58885163 0.60749626 0  
0.9411325 0.9411325 0  
0.64931834 0.7019368 0  
0.3803437 0.9411501 0  
0.4962606 0.8289694 0  
0.2724298 0.94235855 0  
0.85921544 0.9428855 0  
0.94283754 0.7401126 0  
0.6037989 0.7909468 0  
0.20195097 0.6353011 0  
0.8724249 0.056662124 0  
0.44025454 0.7368026 0  
0.7333966 0.05578572 0  
0.056032978 0.73218215 0  
0.57016623 0.86501724 0  
0.13328011 0.94418544 0  
0.7750069 0.37503093 0  
0.54138994 0.9441841 0  
0.3575233 0.70660186 0  
0.6482958 0.24611902 0  
0.7708543 0.57322073 0  
0.31825817 0.6341497 0  
0.20344022 0.86945415 0  
0.8790284 0.84746283 0  
0.9449325 0.24904926 0  
0.7001513 0.13010767 0  
0.13099378 0.69988793 0  
0.63093746 0.054080494 0  
0.9454113 0.5813253 0  
0.053976756 0.6317261 0  
0.05475998 0.86977065 0  
0.30535793 0.8698092 0  
0.7068297 0.5607408 0  
0.70297486 0.32608324 0  
0.8796431 0.57523125 0  
0.35511392 0.7995847 0  
0.9468036 0.34842554 0  
0.7902632 0.62080383 0  
0.5516399 0.7595287 0  
0.9474315 0.12276855 0  
0.8103129 0.3157885 0  
0.4840777 0.63569593 0  
0.43113354 0.6415601 0  
0.8014949 0.5309971 0  
0.6318708 0.3813511 0  
0.7013325 0.653751 0  
0.85767996 0.7858696 0  
0.5512782 0.05132927 0  
0.20584688 0.7653332 0  
0.051004216 0.55081666 0  
0.051542126 0.9492848 0  
0.55093247 0.20381424 0  
0.41260448 0.69297475 0  
0.46551895 0.87456363 0  
0.708791 0.9498317 0  
0.23257473 0.54966235 0  
0.69831944 0.27355358 0  
0.7396479 0.4721476 0  
0.424981 0.7829806 0  
0.63487065 0.19775377 0  
0.66414857 0.87423956 0  
0.87720895 0.29090282 0  
0.6748222 0.42535678 0  
0.86919653 0.38343775 0  
0.95010287 0.8931558 0  
0.049551465 0.78014296 0  
0.63374305 0.10351754 0  
0.22368513 0.95105755 0  
0.7108629 0.7562973 0  
0.95086277 0.42821413 0  
0.7906316 0.7975103 0  
0.6250463 0.9505445 0  
0.5484386 0.11493094 0  
0.38048035 0.6077626 0  
0.8530735 0.8878743 0  
0.10244462 0.6321017 0  
0.10244462 0.8678983 0  
0.4449552 0.5482779 0  
0.38483438 0.89424235 0  
0.6096617 0.31178266 0  
0.77973443 0.047713377 0  
0.6889947 0.17581274 0  
0.95220363 0.6409827 0  
0.6843384 0.51929355 0  
0.60910714 0.53639555 0  
0.8336504 0.22262527 0  
0.9531691 0.80213416 0  
0.6353408 0.59792024 0  
0.14372276 0.8986277 0  
0.7303149 0.36503384 0  
0.5470961 0.33056587 0  
0.8961254 0.7413622 0  
0.88434815 0.66018504 0  
0.7476442 0.66334695 0  
0.44096395 0.9538163 0  
0.15293482 0.60241795 0  
0.25261644 0.84248227 0  
0.5455435 0.24938121 0  
0.54266566 0.51730525 0  
0.48445526 0.723047 0  
0.53903866 0.59180266 0  
0.90291065 0.35019177 0  
0.9551321 0.5154258 0  
0.825017 0.710967 0  
0.3949979 0.82131016 0  
0.77483594 0.88901466 0  
[...]
POINT_DATA 10054 
SCALARS fi float 
LOOKUP_TABLE default 
0.5000000000037111 
0.5000000000061886 
3.3331249102799365e-22 
1.2346121786926213e-12 
2.0779536832231e-14 
2.8359607941843797e-11 
0.9999999999894327 
0.9999999999979647 
0.9999999999994846 
0.9999999999997211 
0.9999999999999336 
0.9999999999999589 
0.9999999999999803 
0.9999999999999956 
0.999999999999997 
0.9999999999999988 
0.9999999999999993 
0.9999999999999998 
0.9999999999999998 
1.0000000000000004 
0.9999999999999998 
0.9999999999999999 
1.0 
1.0 
0.9999999999999999 
0.9999999999999999 
1.0000000000000004 
1.0 
0.9999999999999996 
1.0000000000000002 
1.0000000000000002 
1.0000000000000002 
0.9999999999999997 
1.0000000000000002 
0.9999999999999999 
1.0000000000000002 
1.0 
1.0 
1.0000000000000002 
0.9999999999999999 
1.0000000000000002 
1.0 
1.0000000000000002 
0.9999999999999999 
0.9999999999999998 
1.0 
1.0 
0.9999999999999997 
0.9999999999999994 
0.9999999999999988 
1.0000000000000007 
0.9999999999999685 
0.9999999999999611 
0.9999999999993064 
0.9999999999931497 
2.797005165819774e-11 
1.5734090894960883e-11 
1.2344627123126742e-11 
9.579832756702242e-12 
8.351181816137933e-12 
7.34361364274043e-12 
6.514830947092577e-12 
5.857481524997376e-12 
5.214402436730942e-12 
4.654242232579263e-12 
4.283467557514068e-12 
3.8461204446215824e-12 
3.5015294417217687e-12 
3.165188385941564e-12 
2.881305550702164e-12 
2.560217625044616e-12 
2.351975002970492e-12 
2.140839228710634e-12 
1.91803719636333e-12 
1.7207698676483498e-12 
1.5223377997723362e-12 
1.396033687289243e-12 
1.2651971943778722e-12 
1.1185770698734668e-12 
9.883221439625002e-13 
8.843646798662295e-13 
7.969105210640172e-13 
6.934485652161754e-13 
6.198310812954521e-13 
5.051971006552186e-13 
4.964986094925213e-13 
4.1252539274711043e-13 
3.5572516095410427e-13 
3.104844851633381e-13 
2.7895181125448675e-13 
2.3880210980723217e-13 
2.0089968042781026e-13 
1.6062559763762364e-13 
1.55066571350551e-13 
1.275502621089657e-13 
9.060099250455343e-14 
8.955869414652807e-14 
7.505235762050044e-14 
6.197741585951367e-14 
5.286899012202307e-14 
4.1750450439412305e-14 
3.401719824377659e-14 
2.5056166314999116e-14 
2.6022662125276958e-14 
1.9175779530114026e-14 
1.5519407513726763e-14 
1.3355093518255993e-14 
8.746739840174042e-15 
9.052618401177561e-15 
6.413720973835002e-15 
4.8826523897894366e-15 
3.1026555255504094e-15 
3.2826424547774284e-15 
2.4884467249981795e-15 
1.5077836564807207e-15 
1.2006173977187147e-15 
1.194432446622459e-15 
8.090363211026661e-16 
6.948196618479018e-16 
4.873939417685248e-16 
3.690715299838318e-16 
2.007050375264269e-16 
2.2519263485398706e-16 
1.3267906545018632e-16 
8.40659463731385e-17 
7.899823198848108e-17 
4.480083122703959e-17 
1.0729732642179488e-17 
3.490367343432087e-17 
1.72060110262704e-17 
1.43349506582723e-17 
9.618555710805221e-18 
6.023772989241721e-18 
4.662483927292652e-18 
4.146209636456149e-19 
2.3671207809690827e-18 
1.0550979911440496e-18 
1.0980405609152173e-18 
2.2055941917524864e-19 
4.1995073688428703e-19 
2.738227097461458e-19 
1.410362837745471e-19 
2.6308244926583573e-20 
6.951447880881393e-20 
4.631744907969363e-20 
2.4975669547834512e-20 
1.7265602072018285e-20 
6.286208713521698e-21 
4.8491187291136264e-21 
1.1238363158017818e-21 
1.6858718635653688e-21 
-2.3031818973663408e-23 
9.372127295985877e-22 
-2.004672678107795e-22 
3.85596842870713e-21 
1.6130856534033082e-20 
6.235755646149158e-20 
1.7367823826637282e-19 
4.894190442140174e-19 
1.2250305743555733e-18 
2.73860657605513e-18 
6.170459269061564e-18 
1.2736126553940513e-17 
2.3790584143898036e-17 
4.832240416125534e-17 
8.481771857424758e-17 
1.5222975903427794e-16 
2.5197498139055354e-16 
4.4223186931229616e-16 
6.920574115252567e-16 
1.162131656758874e-15 
1.734625705125002e-15 
2.668830363886805e-15 
3.94224255266865e-15 
5.8087888752025594e-15 
8.488637767586232e-15 
1.1648285592798576e-14 
1.621094857333542e-14 
2.3227761095708702e-14 
3.031476205020283e-14 
4.1183979839778025e-14 
5.3663801822231715e-14 
6.888546139510694e-14 
8.570014230765712e-14 
1.1966765643392108e-13 
1.3630957131923508e-13 
1.8455717434985546e-13 
2.0975869163407887e-13 
2.611030502193172e-13 
3.2136246963239726e-13 
3.78971257563764e-13 
4.4948195216122173e-13 
5.177446320597802e-13 
6.434256394226982e-13 
6.899545469237239e-13 
8.064872798993214e-13 
9.689802875516696e-13 
1.0476125759219496e-12 
1.1735779377828941e-12 
1.3303711794577973e-12 
1.474554461578268e-12 
1.6287418611278043e-12 
1.7715837929306168e-12 
2.0495129175145978e-12 
2.185618372289002e-12 
2.145437566141597e-12 
2.538232494779991e-12 
2.6543346262821424e-12 
2.9355072144334376e-12 
2.97914089674994e-12 
3.1454989915901824e-12 
3.361166479971239e-12 
3.5588773631261167e-12 
3.735300375755049e-12 
4.022765460741432e-12 
3.773550158367931e-12 
4.337562223898849e-12 
4.181122522339458e-12 
4.5036196388580875e-12 
4.527251210986993e-12 
4.6744191235651576e-12 
4.759467870469527e-12 
4.8546418845297765e-12 
4.903313614634503e-12 
4.845151781303268e-12 
5.070022213652571e-12 
5.070043422287505e-12 
4.971124663406089e-12 
5.064108980356245e-12 
5.139213939697635e-12 
5.17849559870156e-12 
5.01550079653788e-12 
5.066772270701823e-12 
4.907385161516051e-12 
4.997128092375684e-12 
4.786814147892935e-12 
4.935873143860324e-12 
4.726101811666433e-12 
4.612527105527692e-12 
4.549880468407008e-12 
4.557491007854116e-12 
4.322162572588936e-12 
4.320393685778654e-12 
4.10519947703362e-12 
4.018031209514402e-12 
3.96330327145793e-12 
3.738294989276079e-12 
3.641978221947378e-12 
3.5560699688386368e-12 
3.3783538573015595e-12 
3.275058363255189e-12 
3.103314781912131e-12 
2.6085228053904552e-12 
5.835123775744131e-12 
1.068049130626032e-11 
1.549827201090493e-11 
1.8803710035519816e-11 
2.225309403472847e-11 
2.4436309747849824e-11 
2.5654808115578415e-11 
2.7749509283926296e-11 
3.052816465563051e-11 
2.8661691249148246e-11 
3.120710253109964e-11 
3.247563209533573e-11 
3.134356763256831e-11 
3.1980194621078144e-11 
3.1931770853831914e-11 
3.1536094229537575e-11 
3.318676339748722e-11 
2.9920755322243143e-11 
3.057963336533802e-11 
3.039616255300716e-11 
2.7643542718989964e-11 
2.7380116668311234e-11 
2.6003631488400866e-11 
2.4589382341098092e-11 
2.256317678342524e-11 
2.0757285063808148e-11 
2.0549893910873046e-11 
1.7119600048277233e-11 
1.597919422887147e-11 
1.4423139099490059e-11 
1.2343112342353883e-11 
1.1703214041690311e-11 
9.399543991972643e-12 
8.180210366401647e-12 
7.129118543514227e-12 
5.9916294985318785e-12 
4.784935154404447e-12 
4.043181667945819e-12 
3.238322608347165e-12 
2.650182581090514e-12 
2.1327887230067095e-12 
1.5933848547354161e-12 
1.1870348026414815e-12 
9.482042377938137e-13 
6.990573144042135e-13 
4.704707202567972e-13 
3.3847397222679646e-13 
1.97608181744341e-13 
9.625312046054587e-14 
5.4118199380229274e-14 
7.411497979484746e-14 
7.423168778837776e-14 
7.116862641167076e-14 
6.573973475580858e-14 
5.996018517045622e-14 
5.704888559299237e-14 
5.1208837964293806e-14 
4.8938931279062064e-14 
4.666295866586155e-14 
4.211257211645898e-14 
4.1424301607556e-14 
3.7718430882179056e-14 
3.70379357402938e-14 
3.548194247876581e-14 
3.473206069476667e-14 
3.363780841971022e-14 
3.165911369141242e-14 
3.128260597291051e-14 
3.28306831694114e-14 
3.2148785276487144e-14 
3.0144075605047255e-14 
3.2170267731897454e-14 
3.2645015247878915e-14 
3.302764998013522e-14 
3.421403804910806e-14 
3.525442965365835e-14 
3.642144575346433e-14 
3.944380508691375e-14 
4.462513984053946e-14 
4.4080723197643795e-14 
4.9846116274347296e-14 
5.989337524148088e-14 
5.654067033269627e-14 
7.171476568478478e-14 
7.608518299989603e-14 
9.421899949704857e-14 
1.148125998408502e-13 
1.0876678856071511e-13 
1.4565261510514459e-13 
1.8307422152694352e-13 
2.535773970652775e-13 
3.120244666724359e-13 
4.317628477968596e-13 
5.701401995201521e-13 
7.994907752424168e-13 
1.2984428397465386e-12 
1.5397320635083355e-12 
3.3488882403294437e-12 
2.3206646265404834e-11 
2.2996291599378367e-11 
2.231107839658795e-11 
2.2779985802431652e-11 
2.1101187796875258e-11 
2.0486882830004476e-11 
2.0135206264397112e-11 
1.9632218682696104e-11 
1.8845103882161823e-11 
1.8246170586001152e-11 
1.867733429577074e-11 
1.7177505814310438e-11 
1.6728641975424985e-11 
1.612305715911477e-11 
1.567687477704833e-11 
1.518338901707501e-11 
1.4729031456420048e-11 
1.4235525484847422e-11 
1.3414896503549147e-11 
1.3038988514312479e-11 
1.2956335789115616e-11 
1.2070812700514583e-11 
1.1535408954121945e-11 
1.1339127109143703e-11 
1.0808898460314479e-11 
1.0473856217190758e-11 
9.848296307941048e-12 
9.928887926602003e-12 
9.349069705288679e-12 
8.970669526130462e-12 
8.696214370345252e-12 
8.424935806421619e-12 
8.071436063596708e-12 
7.987016444341115e-12 
7.737698414771704e-12 
7.521222906923001e-12 
7.489897761611329e-12 
7.2353646673634874e-12 
7.124642386429466e-12 
7.284458217378428e-12 
7.188328730159384e-12 
7.342396709702589e-12 
7.49392106344228e-12 
7.728194823548102e-12 
8.412594707517959e-12 
8.907026932132452e-12 
1.0745843409973625e-11 
1.3528341469864635e-11 
2.4419893098317167e-11 
0.3372113208256858 
0.9499138676049719 
0.8071128303655416 
0.7213889428159124 
0.9993872539223833 
0.26660115858106676 
0.003853746330401626 
0.9207265609214473 
0.17225934945979027 
0.9988676330903192 
0.7521957627170661 
0.9988803851477542 
0.6428630763166363 
0.2374762635165017 
0.7744163357984397 
0.93092139414402 
0.8218834986643178 
0.015412487567677158 
0.3675063767063099 
0.9965715512595195 
0.9964082375076223 
0.2277603628666108 
0.27222447214664847 
0.014455921875424051 
0.5906616039086326 
0.6410894950790845 
0.9999995988529135 
0.6498509973007898 
0.8852931418856406 
0.993695975125309 
2.0268259064117848e-5 
0.8656153307739273 
0.7861416980002339 
0.9747136227846299 
0.7609147674671549 
0.5239650230538465 
0.7690904721344352 
0.068829587175385 
0.02029522083280452 
0.00045488794328086846 
0.33057059183087756 
0.9198020808662226 
0.9832509891974242 
0.999888790927926 
0.985107247626131 
0.05860663285343816 
0.6358667163619423 
0.0006722218785347279 
0.9793001384758314 
0.0611962145987589 
0.14920458457122163 
0.17766976142725222 
0.08493936970988897 
0.2928436867541379 
0.9973499664469608 
0.054928314168655554 
0.6923043157214103 
0.42867337456938664 
0.5958492569522335 
0.2618109280257601 
0.449348565007741 
0.5765949755168178 
0.595577727392152 
0.9999810102390331 
0.8004598054761581 
0.3386393659764704 
0.7811364890996295 
0.8143680769986759 
0.8186904258191057 
0.9665163154094094 
0.02453502960664871 
0.9999979366388271 
0.4908040029717476 
0.029106126475109666 
0.9833122345863535 
0.9918398852819273 
0.7095081792067556 
0.9290576463799248 
0.8071403103403857 
0.9746991749321259 
0.8170667622019913 
0.9998752215858706 
0.9474952634481367 
0.5097146880591579 
0.00159866275543378 
0.8640912278759771 
0.0954744349198734 
0.08473188317080062 
1.2975221053170438e-5 
0.07232507528108503 
0.9999903406269148 
0.9798186550208476 
0.30380956163687317 
0.7916141950434126 
0.227681864737615 
0.17171274378494525 
0.9050597250946302 
0.9837794645909548 
0.9994221608271058 
0.04731753950951932 
0.001914730016338313 
0.9912227959275263 
0.7558531902603406 
0.8039136603707256 
0.118553188335232 
0.02390996961904603 
0.01359763230139625 
0.9242139965666584 
2.020221426963617e-7 
0.5466386514951638 
0.30725181449272765 
0.4935054793243707 
0.43156098690644895 
3.495411147358326e-5 
0.00021576781204673688 
0.3680996427468412 
0.2196393869962374 
0.9999586240205227 
0.8613397040219201 
0.9999999312738692 
0.5540969338813019 
0.21888242637345912 
0.5122737994497845 
0.9623699084830014 
0.0950655151993201 
0.8564408361826757 
0.9980292427959274 
0.5376071833292232 
0.42378308944886195 
0.7255621191856436 
0.0003016621934855237 
0.4539969708091494 
0.9999751792891307 
0.45613812813804966 
0.9997022924563522 
0.008052272383276363 
0.15473896705389392 
0.7418091632865798 
0.6516337110969365 
0.8072052525439865 
0.9989969558105262 
0.09829362290078336 
0.8022537756655397 
0.20060394712620278 
0.3004546116799184 
0.615244835645434 
0.7976384066520251 
0.9672207607760616 
0.9431198787673006 
0.8623282246360602 
0.5377931286763395 
0.9977718138080367 
0.5390645470515981 
0.0038694603422345943 
0.92391817253923 
0.7874585468398931 
0.021673490479259785 
0.48561365888947344 
0.8372231272645368 
0.9043249014009955 
0.3927628658002469 
0.005466716452195854 
0.021153477160287083 
0.9997810347748819 
0.9065687466951156 
0.7723922150503759 
0.9961782057104727 
0.06389654358984116 
0.8363102352985976 
0.9922289397378191 
0.6398646255919741 
6.899242735279485e-7 
0.7127307725422924 
0.9986242188408302 
0.43912840718060486 
0.18883302755933973 
0.07181009586725053 
0.022618651322499028 
0.028257506369429523 
0.8187022854937535 
0.4718926947827717 
0.0002853263602267814 
0.15847349414828693 
0.7480925441682734 
0.3270835280816452 
0.46173929688216697 
0.9913362774669563 
0.9999999952167244 
0.9998737516777532 
0.0015381947808611272 
0.9274253324450548 
0.9737237820603314 
0.9914561126389463 
1.523447120727346e-5 
0.8782973231653131 
0.668415705557799 
0.9921485841249662 
0.9052990906988673 
0.0024418843989041936 
0.02192390955614764 
0.3338485662532623 
0.19105998208674524 
0.0890912826951596 
0.7685672011569104 
0.8332763460928982 
0.9790442481748765 
0.8436997397466104 
0.9679566120822861 
0.5152765866108604 
0.016086752961530098 
0.04799165215284485 
0.6998619236103312 
0.004416511128251138 
0.7703823992728718 
0.8374457464143904 
0.9939755876952371 
0.00031567792641481925 
0.9999344596418889 
0.9070700016836116 
0.014648351521513857 
0.4595360375750714 
0.3815419705498292 
0.24645953940796184 
0.9279933556582113 
0.8976277668405662 
0.05721672966506806 
0.9988747650292693 
0.98891061379476 
0.09855905199375213 
0.8470548574264382 
0.0022535166440816276 
0.960469711171507 
0.16500947574102573 
0.948816425404385 
0.4456868388941751 
1.7061906692670161e-6 
0.6548795825899542 
0.9889186022250873 
0.8035711900921949 
0.6859388949018563 
0.9998980746373338 
0.012639400996136765 
0.6752318977486402 
0.4932594194903056 
0.04669186237182251 
0.4670354618571321 
0.0959503378412996 
0.011222493360544726 
0.9864240840286584 
0.15488853174463085 
0.9968990023330211 
0.04149183201011148 
0.06676697622704143 
0.6489980955938713 
0.08355658146268491 
0.9999966624631236 
0.29506014704609995 
0.4383330249972748 
0.028487264672535657 
0.18198541212155905 
0.07335468713008086 
0.17788289453567602 
0.34800699830209786 
0.9999994120488391 
0.9999534078134432 
0.42920456017419134 
0.12704012123187566 
0.3891251558162625 
0.6879602300257034 
0.5928599629471828 
0.9939213538089287 
0.5872824058926137 
0.2804260396772373 
0.35546387564752485 
0.9999997494403143 
0.7713278871195931 
0.8071064493492064 
0.48855950287958577 
0.7551360795297068 
0.9895610299675226 
0.6494288439987345 
0.5468462688141473 
0.5401634907267787 
0.5403027564372389 
0.933563721441139 
0.99977953244105 
0.2111736520895921 
0.9814667439145509 
0.9999983146851624 
0.9989696023531145 
0.9484135622296308 
0.9743036942416299 
0.6042146266094659 
0.500964029088234 
0.02591132596882031 
0.9930013589125383 
0.9482056782298713 
0.3240634286594204 
0.7465339073374395 
0.9991010615821374 
0.009188023930069445 
0.22842306044377644 
0.7566417317165355 
0.7912109706049439 
0.00015009788626778268 
0.7308902797164816 
0.8505525196983439 
0.7018433650467861 
0.9655246927107087 
0.49743305877481114 
0.7065185838543645 
0.9702447501442493 
0.29480169856082716 
0.708281241390726 
0.6568571346371255 
0.9000886352824803 
0.8499978925057519 
0.7817022178637629 
0.00015887354434259148 
0.6522642558925561 
0.4858072596744062 
0.9986444015541401 
0.3192219568584552 
0.9958705322997868 
0.9997992294885577 
0.6600787322508248 
0.09368322719423373 
0.9999914139286125 
0.0039034888411218676 
0.9566949855876512 
0.8767654363447701 
0.20029094222073238 
0.07539247192348249 
0.004958031685844428 
0.17197308475904688 
0.8332203252403405 
0.9998538620455591 
0.9883117764417 
0.9351297550795095 
0.1685325927126239 
0.5124916096784463 
5.506209704847902e-5 
0.7230825247980701 
1.7774578545397e-5 
0.8473635752281858 
0.05033864307818923 
0.7131378561176369 
0.9999913537182915 
0.05596895583120894 
0.2487104691293672 
0.8946131005366138 
0.9994351124790077 
0.28792682801610897 
0.842342732931316 
0.006492785587297468 
0.9959607081837423 
0.13525694468047259 
0.7563039067319713 
0.08132996801569531 
0.9939886824121362 
6.3717856803769575e-9 
0.9769010383628323 
0.00024310252580809688 
0.2208442590891765 
0.04642481712309848 
0.8023927699690732 
0.9999999151046761 
5.799961398385176e-7 
0.0013002847701481363 
0.0013266398858932421 
0.023516124276634236 
0.038220011229634934 
3.618925396167506e-5 
0.8557978521030138 
0.9999971269745619 
0.009531943687496252 
0.6572814215392421 
0.03840571432973268 
0.15883461936417928 
0.9469311186064778 
0.19130090901317098 
0.9548536723189895 
0.007402405931265371 
0.7173986114757233 
0.011923377547572495 
0.0016034293308757126 
0.7940264517828509 
0.08702082166328183 
0.962619352619857 
0.7518821252678994 
0.971200372968305 
0.0009277736353760767 
4.1247528787780215e-8 
0.813975211443869 
0.47074989656053456 
0.9750186425381757 
0.9747030817460988 
0.8920290986398356 
0.7111888277931555 
0.998330761816479 
0.12524377787955873 
0.4156418796650316 
0.8442452474581121 
0.34284223296196126 
0.9715803408638407 
0.9941347124878043 
0.7825074327600161 
0.9999681459362153 
0.12263500988616834 
0.622149843896795 
0.9708933125498378 
0.9587543227993693 
0.8026184166986676 
0.8851513259315683 
0.3422280325651101 
0.433851907298885 
0.5172845802845518 
0.6096240080517248 
0.9972512436119695 
0.9902881163504066 
0.6973976518380736 
0.21731351015409486 
1.494496919230762e-6 
0.9998783293104503 
0.9298994200187025 
0.38983419222743754 
0.45917118930186007 
0.9999999984763035 
0.176895879411814 
0.10256241293308034 
0.007652836169204225 
0.9992710300371492 
0.9991278350257684 
0.3555467761960761 
0.6172112087441706 
0.0005625741959079979 
0.8640375234434352 
2.8845616910831646e-6 
0.9999999931878609 
0.9131383705187787 
0.8374038545929462 
0.00017028312562987247 
0.5959145316802011 
0.636407840050802 
0.0017182214802002214 
0.4541283984503757 
0.11475524507828376 
0.007835697919108136 
0.5056084704682712 
0.11407917691768375 
0.20850680049741901 
0.37766839275773206 
0.7286472380093219 
0.9594637942843113 
0.18905718670727514 
0.927476819843416 
0.02949443712910125 
0.010401716003926564 
0.5380648004575568 
0.36152930062077954 
0.7246484918050086 
0.9411336563302988 
0.9971638713404128 
0.7731083059426432 
0.6906243364953135 
0.0021054701911592637 
1.3983711635423586e-7 
0.2896850572439396 
0.9058824616059318 
0.3578828319734055 
0.4664747356461978 
0.24935879365514463 
0.7483084527089509 
0.372811036872606 
0.5067387997415087 
0.00016563734001904962 
0.010632907591042896 
0.5600792221265497 
0.8467083209005959 
0.31169044192721196 
0.017690816274633443 
0.9995815642423427 
4.0855369352582516e-5 
6.00424699587082e-6 
0.999809560185901 
0.8393210716371666 
0.20946730119416535 
0.7706003650032959 
0.08922494455467378 
0.06374920139344246 
0.6212896628265051 
0.8475671965996898 
0.9136553429339315 
0.7685382383503568 
0.42078000863515025 
0.9931843863165077 
0.22554072228994962 
0.890897838147755 
0.23279783892647496 
0.007748473408573172 
0.0405582631621672 
0.7355111681079892 
0.8267141511253178 
0.6040444709636219 
0.010744804842414132 
0.3280057655374721 
0.9873914419629246 
0.42657738612639484 
0.3759361880786115 
0.36064199728354135 
0.7108948206756065 
0.034689971531521153 
0.03708902611102376 
0.008713963104956476 
0.6583729077310004 
0.9977858495260479 
0.05166404065625254 
0.38806953549855117 
0.8908903952956888 
0.6557772901735643 
0.13466596089772023 
0.00011161081142489652 
0.5708751207116501 
0.49062710747302163 
0.9995776976047033 
0.9998397216560005 
0.000986439880928221 
0.999999975848334 
0.9971908489684577 
0.9100094248303764 
0.8550973328420719 