# vtk DataFile Version 3.0 
Unstructured Grid 
ASCII 
DATASET UNSTRUCTURED_GRID
POINTS 425 float 
0.5 0 0  
1 0 0  
1 1 0  
0 1 0  
0 0.5 0  
0.5 0.5 0  
0.55 0 0  
0.6 0 0  
0.65 0 0  
0.7 0 0  
0.75 0 0  
0.8 0 0  
0.85 0 0  
0.9 0 0  
0.95 0 0  
1 0.05 0  
1 0.1 0  
1 0.15 0  
1 0.2 0  
1 0.25 0  
1 0.3 0  
1 0.35 0  
1 0.4 0  
1 0.45 0  
1 0.5 0  
1 0.55 0  
1 0.6 0  
1 0.65 0  
1 0.7 0  
1 0.75 0  
1 0.8 0  
1 0.85 0  
1 0.9 0  
1 0.95 0  
0.95 1 0  
0.9 1 0  
0.85 1 0  
0.8 1 0  
0.75 1 0  
0.7 1 0  
0.65 1 0  
0.6 1 0  
0.55 1 0  
0.5 1 0  
0.45 1 0  
0.4 1 0  
0.35 1 0  
0.3 1 0  
0.25 1 0  
0.2 1 0  
0.15 1 0  
0.1 1 0  
0.05 1 0  
0 0.95 0  
0 0.9 0  
0 0.85 0  
0 0.8 0  
0 0.75 0  
0 0.7 0  
0 0.65 0  
0 0.6 0  
0 0.55 0  
0.05 0.5 0  
0.1 0.5 0  
0.15 0.5 0  
0.2 0.5 0  
0.25 0.5 0  
0.3 0.5 0  
0.35 0.5 0  
0.4 0.5 0  
0.45 0.5 0  
0.5 0.45 0  
0.5 0.4 0  
0.5 0.35 0  
0.5 0.3 0  
0.5 0.25 0  
0.5 0.2 0  
0.5 0.15 0  
0.5 0.1 0  
0.5 0.05 0  
0.70750093 0.6956974 0  
0.74098915 0.3808518 0  
0.2772981 0.7541676 0  
0.48631203 0.7755567 0  
0.7920695 0.18098614 0  
0.81983465 0.5514387 0  
0.83527184 0.82780945 0  
0.6732796 0.5603538 0  
0.6502225 0.23464122 0  
0.4031742 0.66632706 0  
0.6337259 0.85083497 0  
0.14747472 0.64770067 0  
0.14491168 0.8591226 0  
0.38469014 0.8466242 0  
0.8481892 0.69832444 0  
0.542183 0.6361351 0  
0.86261964 0.31033546 0  
0.63433784 0.4131721 0  
0.88163674 0.44013447 0  
0.6506765 0.12701236 0  
0.28058472 0.62744004 0  
0.266377 0.890746 0  
0.52052236 0.8884407 0  
0.8853813 0.10415383 0  
0.5961039 0.74288064 0  
0.7321474 0.10657057 0  
0.7534531 0.9109957 0  
0.7306364 0.49010426 0  
0.10593562 0.7633901 0  
0.6085483 0.33960903 0  
0.41244462 0.7504563 0  
0.8924015 0.9024257 0  
0.75284874 0.2653967 0  
0.90782446 0.5956855 0  
0.73421985 0.6148459 0  
0.9035777 0.22598699 0  
0.904664 0.7677448 0  
0.7560002 0.80167246 0  
0.6235837 0.6497568 0  
0.4761963 0.600626 0  
0.09405889 0.90726966 0  
0.46036786 0.90225554 0  
0.57321554 0.5612291 0  
0.9125262 0.5008957 0  
0.18869828 0.73517185 0  
0.5819982 0.20640646 0  
0.3580837 0.58597964 0  
0.4673418 0.71096164 0  
0.80884737 0.91465074 0  
0.19329327 0.5906351 0  
0.7073498 0.19763404 0  
0.6881333 0.3114111 0  
0.8100273 0.08057853 0  
0.92167765 0.37289417 0  
0.78898376 0.7223936 0  
0.18423504 0.9137875 0  
0.5955052 0.92697006 0  
0.09174431 0.68104494 0  
0.077176034 0.8196744 0  
0.33534795 0.702193 0  
0.22631912 0.808785 0  
0.33873102 0.92416656 0  
0.5554851 0.8122672 0  
0.7875255 0.44344616 0  
0.28962484 0.8032018 0  
0.8231329 0.64439607 0  
0.6710661 0.771233 0  
0.4472337 0.83958507 0  
0.5980063 0.09034859 0  
0.9051648 0.67686373 0  
0.8193783 0.37089363 0  
0.67413706 0.9246006 0  
0.6844245 0.07681677 0  
0.21334338 0.6756072 0  
0.9346366 0.29424834 0  
0.92509955 0.83952224 0  
0.5786958 0.39345044 0  
0.83912766 0.26552165 0  
0.68860036 0.40520525 0  
0.6663302 0.5010004 0  
0.542882 0.7265066 0  
0.93767685 0.158872 0  
0.93177444 0.073215485 0  
0.74769515 0.5547941 0  
0.66424096 0.16931927 0  
0.81398284 0.7749214 0  
0.85481274 0.49390808 0  
0.93743306 0.41747978 0  
0.28681663 0.5606412 0  
0.7629547 0.66944677 0  
0.5542654 0.15739225 0  
0.6945487 0.8317527 0  
0.32680076 0.76431686 0  
0.4026466 0.5715736 0  
0.8783856 0.16675018 0  
0.16518609 0.7910477 0  
0.147853 0.5463479 0  
0.49777296 0.92527354 0  
0.37162519 0.94965 0  
0.27740297 0.9445658 0  
0.8031426 0.31872594 0  
0.78311247 0.49081337 0  
0.7842517 0.1387968 0  
0.8779965 0.043310434 0  
0.6565816 0.36589628 0  
0.9404215 0.9419655 0  
0.766742 0.94874734 0  
0.64274204 0.7066805 0  
0.56707066 0.67341655 0  
0.7851117 0.8396477 0  
0.6108795 0.58173275 0  
0.7602141 0.053777907 0  
0.50265235 0.82990026 0  
0.67994595 0.6517148 0  
0.050044518 0.7343793 0  
0.14409903 0.9549447 0  
0.9394896 0.74489534 0  
0.9551314 0.54973686 0  
0.8443352 0.94729584 0  
0.6922829 0.116647094 0  
0.21273914 0.86883974 0  
0.52278024 0.5398059 0  
0.61224324 0.79180586 0  
0.53860146 0.95340276 0  
0.85792744 0.54979974 0  
0.4517896 0.75909996 0  
0.9541052 0.64298636 0  
0.4959701 0.6462069 0  
0.57732165 0.86934584 0  
0.13438222 0.70896363 0  
0.38239995 0.70804083 0  
0.27553168 0.6913406 0  
0.04763526 0.64252275 0  
0.0443123 0.85993123 0  
0.64345574 0.04124834 0  
0.87813115 0.85624826 0  
0.3436422 0.64307153 0  
0.5990114 0.51781875 0  
0.87626976 0.63548005 0  
0.79674315 0.8121981 0  
0.70189476 0.5248012 0  
0.41175634 0.801514 0  
0.5565765 0.31738317 0  
0.6906944 0.6090525 0  
0.31750926 0.8643521 0  
0.049578637 0.54816455 0  
0.048423294 0.9519149 0  
0.64600044 0.28648314 0  
0.7028146 0.24820054 0  
0.7515703 0.23299614 0  
0.06045307 0.7782968 0  
0.7482215 0.32072487 0  
0.93889374 0.88784486 0  
0.95960283 0.25405845 0  
0.8354813 0.1344427 0  
0.9581464 0.3397404 0  
0.8718733 0.37224746 0  
0.87957907 0.27221736 0  
0.222779 0.95585036 0  
0.5389708 0.4449429 0  
0.89079946 0.7162956 0  
0.14090258 0.9102957 0  
0.93933636 0.1090361 0  
0.5672007 0.7678667 0  
0.8009522 0.5835888 0  
0.7306301 0.7482025 0  
0.8054748 0.6834026 0  
0.3302315 0.54503405 0  
0.48272002 0.86530185 0  
0.09488948 0.63985497 0  
0.961578 0.4581426 0  
0.9525706 0.79959327 0  
0.42736888 0.6124512 0  
0.73493004 0.42279407 0  
0.67188543 0.8725097 0  
0.7060864 0.35773262 0  
0.23151435 0.7628894 0  
0.540292 0.22876774 0  
0.8512693 0.2083983 0  
0.5948522 0.2535501 0  
0.2276516 0.54600304 0  
0.41344976 0.7085565 0  
0.8556544 0.79130304 0  
0.70995367 0.95498025 0  
0.8538161 0.6028676 0  
0.33950177 0.8124618 0  
0.52509785 0.59386957 0  
0.1469042 0.5934557 0  
0.6289334 0.9465527 0  
0.8391179 0.8865024 0  
0.7174704 0.03803972 0  
0.22986238 0.62699443 0  
0.5612275 0.49553597 0  
0.4234322 0.874856 0  
0.08952622 0.8619968 0  
0.43466586 0.94189495 0  
0.45267665 0.5475247 0  
0.09901066 0.5470382 0  
0.5819537 0.62240237 0  
0.37762377 0.5374462 0  
0.83463174 0.41036054 0  
0.4456038 0.7890869 0  
0.9223516 0.45528558 0  
0.26270926 0.8480691 0  
0.2545995 0.78208786 0  
0.6303897 0.47640538 0  
0.77783334 0.8874281 0  
0.8040185 0.9672385 0  
0.51894397 0.6885416 0  
0.7483955 0.19018087 0  
0.31672344 0.604248 0  
0.530513 0.19706918 0  
0.60762465 0.13955858 0  
0.7253025 0.28700402 0  
0.2372208 0.7246361 0  
0.9099207 0.32825893 0  
0.19392465 0.5456197 0  
0.17298053 0.6933088 0  
0.8133572 0.45956984 0  
0.18954924 0.95625526 0  
0.36031175 0.88638216 0  
0.44810435 0.6575026 0  
0.8312855 0.7370995 0  
0.7021166 0.15704669 0  
0.09669245 0.953576 0  
0.78461766 0.41234827 0  
0.9510459 0.38075215 0  
0.55933595 0.5910324 0  
0.30383396 0.7275454 0  
0.50866145 0.74735224 0  
0.95747304 0.5021497 0  
0.55007577 0.09718909 0  
0.9093979 0.637551 0  
0.31707567 0.96106255 0  
0.2338757 0.91591716 0  
0.047317546 0.6892354 0  
0.043665346 0.82780904 0  
0.18880537 0.8307187 0  
0.54885674 0.047405235 0  
0.7005862 0.5763341 0  
0.5789813 0.95703626 0  
0.09517383 0.7221839 0  
0.66294515 0.44005072 0  
0.6141922 0.88899434 0  
0.68939126 0.7318021 0  
0.6754723 0.19976014 0  
0.6527901 0.8114979 0  
0.5348323 0.4795268 0  
0.7719615 0.09617614 0  
0.30879366 0.66557086 0  
0.5892735 0.44420958 0  
0.6240219 0.1865796 0  
0.19841255 0.6340649 0  
0.77987903 0.36143658 0  
0.8434378 0.05920409 0  
0.8967096 0.94827163 0  
0.5386745 0.3690323 0  
0.24292125 0.5891698 0  
0.628585 0.7539438 0  
0.6182276 0.37872645 0  
0.90365773 0.39877054 0  
0.71350557 0.788653 0  
0.5583294 0.9080622 0  
0.7804297 0.6269791 0  
0.83950853 0.34518284 0  
0.2980342 0.90496033 0  
0.95467174 0.84311134 0  
0.6022288 0.29848412 0  
0.12343744 0.6807311 0  
0.383109 0.6268349 0  
0.66064245 0.39415124 0  
0.64382696 0.0838445 0  
0.048727408 0.5960617 0  
0.04665361 0.9045338 0  
0.9502323 0.6900119 0  
0.14825124 0.7494789 0  
0.53912187 0.85005844 0  
0.51926005 0.7954632 0  
0.760689 0.46154624 0  
0.95745635 0.04054307 0  
0.6875636 0.03855344 0  
0.7473608 0.7090172 0  
0.95262927 0.21010745 0  
0.96151114 0.29702216 0  
0.6658759 0.95601016 0  
0.5944167 0.83056635 0  
0.9074282 0.54908496 0  
0.860118 0.90990734 0  
0.5974079 0.044619147 0  
0.5025887 0.97291684 0  
0.47258914 0.9614385 0  
0.6494315 0.5995786 0  
0.54751164 0.2749749 0  
0.24889097 0.6544037 0  
0.7459319 0.85151744 0  
0.83510023 0.29814306 0  
0.46906942 0.807535 0  
0.91628563 0.038044896 0  
0.90481335 0.18469094 0  
0.71096814 0.9042457 0  
0.9601019 0.06934663 0  
0.36643213 0.7432882 0  
0.7237735 0.066883706 0  
0.6497992 0.32710215 0  
0.86372393 0.6623046 0  
0.18284051 0.8822157 0  
0.69776076 0.464509 0  
0.90365434 0.80872697 0  
0.7219786 0.6578362 0  
0.3468349 0.9715031 0  
0.40929115 0.5265238 0  
0.9635657 0.4266556 0  
0.63748753 0.54031086 0  
0.7889096 0.046223544 0  
0.58641016 0.7130934 0  
0.12256787 0.80728704 0  
0.20414913 0.7737924 0  
0.67758584 0.28247443 0  
0.3666511 0.6813699 0  
0.97551537 0.9572611 0  
0.8243451 0.17512041 0  
0.7879971 0.278412 0  
0.39791232 0.9143681 0  
0.8727681 0.7539424 0  
0.754466 0.5089367 0  
0.7944815 0.22467415 0  
0.80869704 0.85951465 0  
0.9051096 0.2845242 0  
0.8033056 0.523618 0  
0.92574507 0.26811433 0  
0.2989194 0.7743062 0  
0.09777776 0.5945273 0  
0.9690781 0.9372758 0  
0.8989324 0.07212773 0  
0.5390918 0.4011105 0  
0.6488392 0.9087134 0  
0.56853306 0.35537267 0  
0.6774125 0.68322325 0  
0.8985959 0.14306124 0  
0.77230304 0.7617163 0  
0.74181646 0.14785576 0  
0.37335792 0.7862594 0  
0.9543547 0.5968944 0  
0.9152652 0.8577867 0  
0.53029376 0.7702779 0  
CELLS 384 1536 
3 159 386 107 
3 51 304 195 
3 86 406 189 
3 287 37 38 
3 339 97 330 
3 372 257 125 
3 252 119 207 
3 253 158 255 
3 225 62 63 
3 318 311 78 
3 98 282 123 
3 35 36 198 
3 102 177 121 
3 186 263 379 
3 306 167 340 
3 122 307 266 
3 303 130 325 
3 265 224 283 
3 108 395 138 
3 403 302 94 
3 176 277 63 
3 103 418 174 
3 419 134 302 
3 343 169 388 
3 219 165 262 
3 90 326 171 
3 99 199 303 
3 147 273 93 
3 66 67 247 
3 401 180 333 
3 145 246 169 
3 337 168 290 
3 29 196 354 
3 188 394 160 
3 346 31 32 
3 166 123 366 
3 276 119 252 
3 170 77 78 
3 161 242 16 
3 147 248 121 
3 388 193 223 
3 232 185 335 
3 177 102 342 
3 106 286 128 
3 115 378 161 
3 57 58 315 
3 226 304 51 
3 387 251 346 
3 115 258 174 
3 374 171 341 
3 166 204 85 
3 48 179 313 
3 240 149 354 
3 283 224 345 
3 118 371 223 
3 177 370 275 
3 194 230 56 
3 395 175 317 
3 267 176 296 
3 324 187 417 
3 355 124 396 
3 363 20 21 
3 110 261 127 
3 187 394 188 
3 152 199 99 
3 314 101 345 
3 313 179 345 
3 134 361 169 
3 185 34 35 
3 374 379 254 
3 126 173 252 
3 12 13 377 
3 187 118 193 
3 219 189 374 
3 405 401 112 
3 283 101 314 
3 300 93 273 
3 153 294 124 
3 344 150 333 
3 217 122 201 
3 180 375 96 
3 103 413 162 
3 298 181 358 
3 201 276 70 
3 269 128 286 
3 107 404 163 
3 208 365 90 
3 255 231 333 
3 205 281 221 
3 88 227 347 
3 91 249 411 
3 6 318 79 
3 339 184 350 
3 203 320 41 
3 283 200 317 
3 103 242 161 
3 379 374 286 
3 234 182 328 
3 386 253 358 
3 186 38 39 
3 108 355 175 
3 118 188 95 
3 87 371 190 
3 265 93 300 
3 111 367 269 
3 216 329 100 
3 255 184 383 
3 315 137 321 
3 230 194 321 
3 326 202 338 
3 243 104 338 
3 329 139 308 
3 303 420 289 
3 98 340 167 
3 196 29 30 
3 244 85 204 
3 115 237 157 
3 241 195 304 
3 188 288 207 
3 326 90 365 
3 119 266 95 
3 248 147 376 
3 278 190 371 
3 160 309 127 
3 308 82 294 
3 266 119 276 
3 241 135 299 
3 319 223 371 
3 152 382 105 
3 187 324 146 
3 248 192 356 
3 186 128 198 
3 382 191 328 
3 393 132 328 
3 363 235 295 
3 288 127 301 
3 239 71 72 
3 181 298 166 
3 422 206 312 
3 354 149 312 
3 48 238 314 
3 176 64 65 
3 196 251 387 
3 249 137 315 
3 274 213 316 
3 249 212 352 
3 274 120 353 
3 422 113 366 
3 390 279 68 
3 159 220 87 
3 10 191 382 
3 310 197 366 
3 73 74 372 
3 96 375 157 
3 225 352 60 
3 226 53 54 
3 335 198 367 
3 115 409 407 
3 359 377 13 
3 314 135 385 
3 59 60 352 
3 55 213 353 
3 228 130 289 
3 277 411 352 
3 27 206 422 
3 163 114 223 
3 82 308 172 
3 243 202 365 
3 205 83 376 
3 264 204 366 
3 83 205 127 
3 317 200 385 
3 172 265 144 
3 163 408 85 
3 45 178 402 
3 279 390 276 
3 190 122 217 
3 297 124 355 
3 170 291 76 
3 320 203 342 
3 229 112 293 
3 284 256 294 
3 353 120 304 
3 104 243 160 
3 48 49 299 
3 401 231 293 
3 67 68 279 
3 170 125 257 
3 14 1 15 
3 197 25 26 
3 168 247 126 
3 122 190 278 
3 92 241 120 
3 88 331 164 
3 391 250 282 
3 153 297 91 
3 8 214 368 
3 351 148 368 
3 282 250 310 
3 300 141 345 
3 161 17 18 
3 56 230 138 
3 261 210 398 
3 255 131 293 
3 148 351 99 
3 323 136 342 
3 66 260 296 
3 356 208 342 
3 217 285 159 
3 381 139 398 
3 356 142 365 
3 297 209 348 
3 261 110 381 
3 321 209 355 
3 294 153 373 
3 264 113 312 
3 295 235 306 
3 360 152 351 
3 191 10 11 
3 387 155 423 
3 178 45 46 
3 184 255 158 
3 84 182 234 
3 173 126 247 
3 198 36 37 
3 183 334 11 
3 87 220 163 
3 195 299 49 
3 236 344 96 
3 165 219 117 
3 329 216 398 
3 397 131 383 
3 290 126 349 
3 349 89 398 
3 302 403 262 
3 75 76 291 
3 130 228 88 
3 134 246 94 
3 264 218 384 
3 258 157 401 
3 185 232 32 
3 294 256 396 
3 347 109 416 
3 197 310 24 
3 86 262 387 
3 280 236 340 
3 299 135 314 
3 235 21 22 
3 103 234 132 
3 127 261 89 
3 400 258 405 
3 215 423 232 
3 346 232 423 
3 23 24 310 
3 228 397 227 
3 347 227 383 
3 301 89 349 
3 289 84 405 
3 330 272 327 
3 222 372 259 
3 203 369 370 
3 239 327 5 
3 212 315 58 
3 213 55 56 
3 140 284 144 
3 178 389 313 
3 149 240 94 
3 295 133 340 
3 264 145 343 
3 163 244 343 
3 19 233 362 
3 341 245 419 
3 280 150 344 
3 192 376 83 
3 34 399 33 
3 88 259 125 
3 305 143 358 
3 139 381 172 
3 369 43 44 
3 73 336 414 
3 361 245 324 
3 135 241 92 
3 305 280 298 
3 166 298 280 
3 167 306 22 
3 362 233 409 
3 233 363 154 
3 16 242 162 
3 258 400 234 
3 284 140 396 
3 332 271 373 
3 337 100 373 
3 266 307 278 
3 379 263 364 
3 296 260 337 
3 66 168 337 
3 203 42 43 
3 198 128 269 
3 251 30 31 
3 109 383 184 
3 245 341 146 
3 41 320 136 
3 103 334 183 
3 295 407 409 
3 330 239 414 
3 196 116 403 
3 285 322 386 
3 206 27 28 
3 142 356 192 
3 137 249 91 
3 214 8 9 
3 233 19 20 
3 263 39 40 
3 211 373 100 
3 257 372 74 
3 145 384 94 
3 129 332 91 
3 41 268 364 
3 217 272 330 
3 93 265 421 
3 142 357 424 
3 250 391 22 
3 201 5 327 
3 170 292 331 
3 228 293 131 
3 104 394 187 
3 415 254 379 
3 361 134 419 
3 332 129 337 
3 92 274 138 
3 10 270 360 
3 182 420 105 
3 322 285 330 
3 148 292 170 
3 99 164 331 
3 403 116 387 
3 90 254 415 
3 69 70 276 
3 7 368 318 
3 237 407 295 
3 45 275 370 
3 107 358 181 
3 280 305 333 
3 253 81 333 
3 360 270 382 
3 80 388 169 
3 277 176 267 
3 364 268 415 
3 221 281 376 
3 215 269 406 
3 275 402 273 
3 97 350 158 
3 374 189 406 
3 132 393 11 
3 171 326 146 
3 180 401 157 
3 137 348 209 
3 84 289 420 
3 82 410 144 
3 311 318 368 
3 141 300 402 
3 80 417 193 
3 357 83 309 
3 243 424 309 
3 218 312 149 
3 47 313 389 
3 34 185 412 
3 32 33 399 
3 162 413 183 
3 199 105 420 
3 414 336 416 
3 140 317 175 
3 253 386 322 
3 268 136 323 
3 16 380 359 
3 377 359 380 
3 73 222 416 
3 156 416 109 
3 221 421 381 
3 265 172 381 
3 174 418 161 
3 181 408 163 
3 225 61 4 
3 226 52 3 
CELL_TYPES 384 
5  
5  
5  
5  
5  
5  
5  
5  
5  
5  
5  
5  
5  
5  
5  
5  
5  
5  
5  
5  
5  
5  
5  
5  
5  
5  
5  
5  
5  
5  
5  
5  
5  
5  
5  
5  
5  
5  
5  
5  
5  
5  
5  
5  
5  
5  
5  
5  
5  
5  
5  
5  
5  
5  
5  
5  
5  
5  
5  
5  
5  
5  
5  
5  
5  
5  
5  
5  
5  
5  
5  
5  
5  
5  
5  
5  
5  
5  
5  
5  
5  
5  
5  
5  
5  
5  
5  
5  
5  
5  
5  
5  
5  
5  
5  
5  
5  
5  
5  
5  
5  
5  
5  
5  
5  
5  
5  
5  
5  
5  
5  
5  
5  
5  
5  
5  
5  
5  
5  
5  
5  
5  
5  
5  
5  
5  
5  
5  
5  
5  
5  
5  
5  
5  
5  
5  
5  
5  
5  
5  
5  
5  
5  
5  
5  
5  
5  
5  
5  
5  
5  
5  
5  
5  
5  
5  
5  
5  
5  
5  
5  
5  
5  
5  
5  
5  
5  
5  
5  
5  
5  
5  
5  
5  
5  
5  
5  
5  
5  
5  
5  
5  
5  
5  
5  
5  
5  
5  
5  
5  
5  
5  
5  
5  
5  
5  
5  
5  
5  
5  
5  
5  
5  
5  
5  
5  
5  
5  
5  
5  
5  
5  
5  
5  
5  
5  
5  
5  
5  
5  
5  
5  
5  
5  
5  
5  
5  
5  
5  
5  
5  
5  
5  
5  
5  
5  
5  
5  
5  
5  
5  
5  
5  
5  
5  
5  
5  
5  
5  
5  
5  
5  
5  
5  
5  
5  
5  
5  
5  
5  
5  
5  
5  
5  
5  
5  
5  
5  
5  
5  
5  
5  
5  
5  
5  
5  
5  
5  
5  
5  
5  
5  
5  
5  
5  
5  
5  
5  
5  
5  
5  
5  
5  
5  
5  
5  
5  
5  
5  
5  
5  
5  
5  
5  
5  
5  
5  
5  
5  
5  
5  
5  
5  
5  
5  
5  
5  
5  
5  
5  
5  
5  
5  
5  
5  
5  
5  
5  
5  
5  
5  
5  
5  
5  
5  
5  
5  
5  
5  
5  
5  
5  
5  
5  
5  
5  
5  
5  
5  
5  
5  
5  
5  
5  
5  
5  
5  
5  
5  
5  
5  
5  
5  
5  
5  
5  
5  
5  
5  
5  
5  
5  
5  
5  
5  
5  
5  
5  
5  
5  
5  
5  
5  
5  
POINT_DATA 425 
SCALARS fi float 
LOOKUP_TABLE default 
0.5000000000155495 
0.5000000000230446 
8.20358897572775e-17 
2.3683547952095003e-11 
6.678216117864747e-13 
9.115665522824043e-11 
0.9999999999981013 
1.0000000000000526 
0.9999999999999842 
1.0000000000000022 
0.9999999999999567 
1.0000000000003069 
0.9999999999998762 
1.0000000000007496 
1.0000000000031106 
4.1893209968491516e-11 
2.279483594780998e-11 
9.002062395801875e-12 
5.530952113278016e-12 
3.5597696034702885e-12 
1.5817158790308235e-12 
1.2413318338377998e-13 
-5.630420331812579e-13 
1.4744941154508742e-13 
-9.536260024296847e-14 
-5.373495397313401e-14 
-4.837481980432819e-14 
-2.2981181067208916e-14 
-3.342051594490949e-15 
7.0067097402700175e-15 
-1.7381753117047892e-15 
-2.9070382327669595e-16 
-1.2427419552833626e-15 
-1.1357015133197757e-16 
3.041412357906469e-17 
2.86202195205487e-15 
-1.035872584495573e-15 
1.9433349030769184e-14 
1.3365194590756146e-13 
5.202940516866218e-13 
1.4716324377285069e-12 
3.659936243622343e-12 
6.130491008931906e-12 
9.404985623455241e-12 
1.482736213201844e-11 
2.1304370843196308e-11 
1.848548083663938e-11 
2.4429210564734444e-11 
2.8185527590874316e-11 
2.141415517421866e-11 
2.401367186169558e-11 
1.7111279967896605e-11 
2.021961877226677e-11 
1.0218887665053057e-10 
1.4879283384459205e-10 
1.4910975553816703e-10 
1.5225735094059044e-10 
1.0583383819980165e-10 
7.286258540701436e-11 
3.800143177418331e-11 
1.5396923129058122e-11 
4.553419652041766e-12 
3.9082150896695596e-13 
2.1188693115602747e-13 
1.8867106955567571e-13 
2.0668647835640654e-13 
-6.264818433767969e-13 
-2.373059259521059e-13 
-1.9098660050615992e-13 
-2.877554609669428e-14 
-3.990418479238321e-12 
1.0386578958678786e-10 
8.517798005002867e-11 
8.3956829237264e-11 
6.495808532416079e-11 
5.2569358036979914e-11 
3.984003287152052e-11 
3.692511399750239e-11 
3.466142887535034e-11 
4.2947562200083105e-11 
0.35967483551079626 
0.9819381487333139 
0.8302333878113097 
0.6843034886689487 
1.0003231625878282 
0.36554002791731943 
0.0026297514195392536 
0.8680363995445072 
1.0139159882356752 
0.8544308233477341 
0.1355248894332704 
0.25087354267052686 
0.8894839250399673 
0.6160692496720923 
0.031123141617545758 
0.927031703291363 
0.8350585063630392 
1.0464218940622807 
0.3670207601838636 
1.0010460602501157 
0.2958151573319166 
0.5554371286183292 
0.24427407884273408 
1.0160559562593154 
0.5402919949011963 
1.0002428756291206 
0.004041224233647895 
0.8811184858288571 
0.4978683294912144 
0.9676857569845126 
0.8542375119982836 
-1.4104766444507199e-6 
1.000377215562148 
0.027054242724614024 
0.5274017244536651 
0.8188064539137864 
0.0010162474180361613 
0.043303252791274324 
0.7719209089497542 
0.9157871107177372 
0.37446606482926476 
0.26510377057150153 
0.9780510765146156 
0.0990351870200253 
0.625693092874776 
0.9492923061662479 
0.24115310840638185 
0.8894278882691753 
0.000602769063332167 
0.07198734038644096 
1.0000986395955849 
0.9988031253850779 
0.9937798211281517 
0.3004946786912377 
0.08538341902202576 
0.4831454915440561 
0.06653034920417596 
0.2007116260000711 
0.6739387945833168 
0.8053484582840594 
0.8532516353686913 
0.39400022789990696 
0.40527433983107897 
0.818242806941705 
0.82656196908403 
0.13240542605166278 
0.24193363818470495 
0.545360552313704 
1.0065062470008928 
0.006251290002501814 
0.872346762346161 
0.019568542373472803 
0.9999300049924398 
0.4581044683851521 
0.38753087257471436 
3.269497532844362e-5 
0.9754948205062774 
0.9647290374679502 
0.9906701797070327 
0.9616766414874145 
0.7244705946157298 
0.7293191112655137 
0.9687518825451102 
0.6725978669157756 
0.9987412811053037 
0.018443269245098367 
0.36002232864209616 
0.13127218641605534 
0.04335950364026002 
0.2528360600193842 
0.8916600207018337 
0.07722967724967462 
0.8644628834368997 
0.2933824852288454 
0.9872550245696037 
0.7594184260629709 
0.019679149249065258 
0.16564678085838827 
0.3072890438985868 
0.4817695781358963 
0.9692490359515488 
0.7180010287580865 
0.9982478097726757 
1.0033835030964084 
1.000721032484361 
-1.951466076928329e-5 
0.0008898958889959226 
0.5331069467859313 
0.8231463536271536 
0.012060278468497528 
0.9280685693337901 
1.000899891326358 
0.45175989901409785 
0.5998366648296601 
0.9517879737569017 
0.6244014255189486 
5.1746747815559404e-5 
0.008573700058039174 
-6.536466726688891e-5 
0.9998513133909125 
0.7335701840654166 
1.0023627601789296 
0.3316027041835795 
0.08867262249481024 
0.21007084229551212 
0.7905018538292325 
0.0015575928905572037 
0.9606919880097047 
0.1909260140774282 
0.6082996069738866 
0.8805905361149504 
0.6173665890030438 
0.31816328735480653 
1.2446072706537121 
0.9997343532283578 
7.434044487161594e-5 
0.5502931654327455 
0.9687533973677858 
0.0475033154885172 
0.013927988251462887 
0.881308705233541 
0.7281349273504287 
1.2119243868194867 
0.7010726584766557 
0.6628204975347146 
0.03508629139433218 
0.799537125260235 
1.0208450317291184 
0.9965945517211241 
1.0004149915268894 
1.0766156207037216 
0.9975988585897102 
1.5751595067683682e-5 
0.26907728310147144 
1.0056214550537796 
0.1306810522829213 
0.6176154996401049 
0.8282870266472142 
0.4931944729187211 
1.218030269031759 
0.004475358307559127 
0.8096737613931594 
0.8751320674494469 
0.5298637346443513 
0.3497109315544209 
0.15640612066820037 
0.10993136002891622 
0.03957635828838868 
0.39871137098562565 
0.11997579798365621 
0.03208023448057527 
3.4006696978203483e-5 
0.7145110562289628 
0.9673648786445345 
0.05877100145699854 
1.002824561281316 
0.7863711802995029 
0.8773244250322078 
0.9989622888293777 
0.9465584548069351 
0.025851153276516672 
0.904866193448391 
0.002968071938582707 
0.004955113892649891 
0.11968653414350577 
0.7711235374236411 
1.0046980318723242 
0.08553201074909719 
0.03530827477890934 
0.0003284492519876576 
1.0000292653835654 
0.22678788957735002 
1.0495067077071842 
0.4441009553450368 
0.49158969415152304 
0.2875919191490144 
0.34848327249034494 
0.01092399517648088 
0.89957317828409 
0.056582898614923036 
0.7195713414026212 
0.7050940008648066 
0.13676279061825086 
0.7343650442236722 
0.8156109299097165 
1.002837059283272 
0.004358167313190435 
0.00013931361898168677 
0.8614310996357731 
0.9992191821769777 
0.23961592737035095 
0.6469429434832458 
1.001581020748465 
0.9992117204149311 
0.7230384217465757 
0.49474030315086165 
0.01779627904444094 
0.40797279269357545 
0.6770030284678206 
0.3725868296221896 
0.5145698934030014 
0.9391547110231104 
0.024206132518736094 
1.000521426219887 
0.28774421547944434 
0.8918538106492367 
0.1153456122553451 
0.9499552589444306 
0.8156737938003019 
0.7260080766964414 
0.018957248486261017 
0.8497430759014827 
0.01190666990230602 
0.36845401710822084 
0.6145503374648031 
0.6193555255613244 
1.0822282648536792 
0.7278650869184027 
0.9408919680224359 
0.7587567226599389 
0.052238154978025385 
0.3065136519093724 
0.996701657087039 
0.09609652297208679 
0.3029289941907733 
0.9940557128531421 
0.18212345364165644 
1.3797298999873362 
0.9986586792863863 
0.5817466793104349 
0.9029994426078302 
1.0074566371210392 
0.20637675242375614 
0.9691977869615338 
0.9945668952592033 
5.2097191538349166e-5 
0.9635873851079712 
0.09504323514035594 
0.41268044447284374 
1.0020391573173866 
0.34368569875897725 
0.1151178655319756 
0.13037767629250302 
0.3071512591633923 
0.8517466683308917 
0.5060356793926776 
3.3879524843172964e-6 
0.9113650321459262 
0.44762888505799153 
0.600634784020302 
0.9793122402243436 
1.0002821818810415 
0.127973893586133 
1.1137308446087226 
0.0005929065960025285 
0.7737499364107757 
0.31363503602313275 
0.5515987581073819 
0.8630671398091353 
0.9077888475846924 
0.9999783302950991 
0.20093266985121738 
0.4365445063917953 
0.18283031882885448 
0.014273816243823055 
0.25559669542056795 
0.05935116844580012 
5.4024268867109325e-5 
1.0052633297167957 
0.10281780514600275 
0.16841415284740127 
0.8338182774630531 
1.043282554810066 
0.36478987065648555 
0.019011572170655983 
0.9354010693855058 
0.6014842899919401 
0.9993917284946827 
0.8682868677516967 
0.013210591851522555 
0.7732935176996724 
0.8863559998492492 
1.000189521815937 
1.0065442995717158 
0.03839551266605924 
0.6278754172928411 
0.9621850465080004 
8.841801602206399e-5 
0.42970139897486437 
0.2484228770072866 
0.07195716632403978 
0.054034656035723896 
0.9529087640202885 
1.0011652537753981 
0.6660297750602676 
0.8355737582680038 
0.8103390282927275 
1.0015534685292689 
0.8052336427436984 
5.540888404222586e-6 
1.0008137784134772 
0.9993152923630546 
0.36736786106871444 
0.004071351597662866 
0.7718856063084995 
1.0002804883983643 
0.002893890329257014 
0.649161871085407 
0.5256316123175039 
0.5292554284466079 
0.8463859966790379 
0.04680802671185117 
1.602654982198664e-5 
0.9939944526655521 
1.1437894843816725 
0.03962654763207157 
1.0514276631496964 
0.5001302526904458 
0.9691590014231355 
0.06430147882237579 
0.9992360856921169 
0.8100127402839892 
0.0038101328530168316 
2.248850094535273e-5 
0.6049267981445834 
