# vtk DataFile Version 3.0 
Unstructured Grid 
ASCII 
DATASET UNSTRUCTURED_GRID
POINTS 124 float 
0 0 0  
1 0 0  
1 1 0  
2 1 0  
2 2 0  
0 2 0  
0.1999999999995579 0 0  
0.3999999999989749 0 0  
0.5999999999989468 0 0  
0.7999999999994734 0 0  
1 0.1999999999995579 0  
1 0.3999999999989749 0  
1 0.5999999999989468 0  
1 0.7999999999994734 0  
1.2 1 0  
1.4 1 0  
1.6 1 0  
1.8 1 0  
2 1.2 0  
2 1.4 0  
2 1.6 0  
2 1.8 0  
1.799999999999167 2 0  
1.6 2 0  
1.400000000001387 2 0  
1.200000000002774 2 0  
1.000000000004117 2 0  
0.8000000000033287 2 0  
0.6000000000024965 2 0  
0.4000000000016644 2 0  
0.200000000000832 2 0  
0 1.799999999999167 0  
0 1.6 0  
0 1.400000000001387 0  
0 1.200000000002774 0  
0 1.000000000004117 0  
0 0.8000000000033287 0  
0 0.6000000000024965 0  
0 0.4000000000016644 0  
0 0.200000000000832 0  
0.5910944769677846 1.420100970644335 0  
1.30000000000208 1.500000000000139 0  
0.4999999999995882 0.9000000000037229 0  
0.4999999999993383 0.457352639821535 0  
0.9239872068241614 1.61439232409359 0  
1.630757350256836 1.626705014479681 0  
0.3375444532439651 1.644574665893207 0  
0.3297888706581342 1.21499803314218 0  
1.685156249999587 1.314843750000413 0  
0.8831567269733058 1.297442441259006 0  
0.7033333333331367 0.6722222222247466 0  
0.2949506855815182 0.6649003105167614 0  
0.6305039240776436 1.704050006472057 0  
0.7432560059485858 0.2764459591630554 0  
0.2567439940510184 0.2764459591624787 0  
0.6313681817527654 1.144389532708179 0  
1.154572534679047 1.26908549306486 0  
1.172014751170408 1.740257914571702 0  
1.424017125785615 1.264803425156673 0  
0.2395901142716411 0.9246100097627614 0  
0.8107228492470183 0.869433617642665 0  
0.2366225203201606 1.420045191430961 0  
1.422445947856699 1.752690933793698 0  
0.4999999999991912 0.1504431011800673 0  
1.804730902777856 1.497352430555571 0  
0.7981302420424322 0.4777673340732181 0  
0.2204545167772904 0.4550690238502209 0  
1.499288727537386 1.410152676330642 0  
1.093190912076217 1.459531543376666 0  
1.789713949393773 1.790817140351761 0  
0.8796070852311076 1.838748748371405 0  
0.4998974597749896 0.6716938052126898 0  
0.7851309298230795 1.476454250944413 0  
0.4925227084373605 1.809631906387707 0  
0.1815033404427531 1.795009283381053 0  
0.8102506305273073 1.110235236146129 0  
0.1656534708619601 1.080567619404735 0  
1.587799495548213 1.815548223677721 0  
1.815850852272476 1.184149147727524 0  
0.5167655082820305 1.58612718287688 0  
0.5252693612613097 1.25834260825122 0  
0.4901310209084201 1.091614664259634 0  
0.1774446228813251 1.589370857452361 0  
1.576535009516761 1.175284653133225 0  
1.287486336538459 1.15314690748099 0  
0.146412972368051 1.263122168796407 0  
1.011985107847232 1.168086176325287 0  
0.7092124846927118 1.293530051127739 0  
0.4228475317888974 1.424031442039797 0  
0.6999485470991146 1.853182998430191 0  
1.282267221076281 1.853690638560696 0  
0.1923443870587648 0.7888287998312823 0  
0.8672201414900949 0.6999999999992101 0  
0.8419254364606832 0.1580745635391138 0  
0.1580745635386324 0.1580745635388995 0  
0.6334712618571028 0.5218314876235663 0  
0.3648890060906314 0.5203476519074968 0  
1.833894482624505 1.342703164185706 0  
1.070248302485164 1.82126017633563 0  
0.6371978420762265 0.8178291847726629 0  
0.3528089676982057 0.8249178647943793 0  
1.428109259707028 1.587601140290592 0  
0.9333489332641471 1.444844717658649 0  
1.293092606103134 1.342786674234995 0  
1.851318187553273 1.645784731132564 0  
0.7722605001484051 1.68229859044744 0  
0.6918316471296321 0.1236209702057155 0  
0.1248722984369912 0.3044327684825531 0  
0.8763790297942544 0.308168352869444 0  
0.3081683528688099 0.1236209702051417 0  
0.646611754085221 0.9889170392554988 0  
0.1516233529676186 0.6225967227701782 0  
0.658131802045848 1.5687945672828 0  
1.283612532996657 1.662344623406799 0  
0.3327032386619682 1.867216640274855 0  
1.660779880803481 1.461239821868668 0  
1.089281333437346 1.62324114548056 0  
0.5894733486431014 0.3277083333347732 0  
0.4055451949290299 0.3283416016946196 0  
0.3409066394701906 1.017201568308779 0  
1.019502228405903 1.329735615469057 0  
1.697245089317063 1.118994737380044 0  
1.897428487348235 1.89770428508794 0  
0.1042043523215315 0.9038361109155015 0  
CELLS 206 824 
3 58 83 67 
3 83 48 67 
3 32 82 74 
3 31 32 74 
3 14 56 86 
3 5 31 74 
3 5 74 30 
3 22 77 69 
3 22 23 77 
3 2 60 13 
3 46 61 88 
3 14 84 56 
3 24 62 77 
3 15 83 58 
3 46 88 79 
3 37 38 111 
3 33 61 82 
3 70 44 98 
3 44 116 98 
3 111 38 66 
3 13 60 92 
3 15 58 84 
3 23 24 77 
3 3 18 78 
3 3 78 17 
3 50 92 60 
3 2 14 86 
3 32 33 82 
3 41 113 116 
3 7 8 63 
3 41 116 68 
3 50 60 99 
3 53 65 117 
3 54 118 66 
3 2 75 60 
3 65 95 117 
3 66 118 96 
3 47 88 61 
3 42 71 99 
3 42 100 71 
3 11 12 65 
3 41 103 67 
3 58 67 103 
3 33 85 61 
3 45 62 101 
3 47 61 85 
3 15 16 83 
3 45 77 62 
3 12 92 65 
3 46 82 61 
3 24 90 62 
3 28 73 89 
3 60 75 110 
3 19 20 64 
3 55 110 75 
3 41 68 103 
3 56 103 68 
3 28 29 73 
3 42 119 100 
3 46 79 73 
3 52 73 79 
3 50 65 92 
3 52 89 73 
3 7 63 109 
3 8 106 63 
3 44 105 72 
3 26 27 70 
3 36 37 111 
3 25 98 90 
3 72 105 112 
3 49 87 75 
3 55 75 87 
3 63 118 109 
3 63 106 117 
3 36 111 91 
3 57 98 116 
3 59 100 119 
3 45 69 77 
3 45 64 104 
3 45 101 67 
3 1 10 93 
3 1 93 9 
3 0 6 94 
3 0 94 39 
3 54 109 118 
3 53 117 106 
3 48 115 67 
3 21 69 104 
3 45 104 69 
3 46 74 82 
3 50 99 71 
3 51 71 100 
3 57 90 98 
3 34 35 76 
3 42 81 119 
3 27 89 70 
3 47 80 88 
3 20 21 104 
3 33 34 85 
3 64 115 97 
3 115 48 97 
3 18 19 97 
3 25 26 98 
3 11 65 108 
3 53 108 65 
3 54 66 107 
3 38 107 66 
3 20 104 64 
3 40 80 87 
3 55 87 80 
3 46 73 114 
3 45 115 64 
3 57 116 113 
3 46 114 74 
3 19 64 97 
3 14 15 84 
3 40 79 88 
3 47 85 76 
3 45 67 115 
3 50 95 65 
3 51 66 96 
3 43 95 71 
3 50 71 95 
3 43 71 96 
3 51 96 71 
3 49 72 87 
3 40 87 72 
3 44 102 68 
3 18 97 78 
3 51 111 66 
3 41 67 101 
3 48 121 78 
3 44 68 116 
3 24 25 90 
3 56 68 120 
3 70 89 105 
3 48 83 121 
3 59 76 123 
3 22 69 122 
3 21 122 69 
3 35 123 76 
3 55 80 81 
3 49 75 86 
3 2 86 75 
3 62 90 113 
3 29 30 114 
3 30 74 114 
3 34 76 85 
3 27 28 89 
3 26 70 98 
3 59 91 100 
3 51 100 91 
3 57 113 90 
3 12 13 92 
3 44 72 102 
3 44 70 105 
3 47 81 80 
3 52 112 105 
3 49 102 72 
3 8 9 106 
3 10 11 108 
3 6 7 109 
3 38 39 107 
3 40 72 112 
3 43 96 118 
3 43 117 95 
3 56 84 103 
3 58 103 84 
3 55 81 110 
3 29 114 73 
3 4 22 122 
3 4 122 21 
3 40 88 80 
3 59 119 76 
3 47 76 119 
3 35 36 123 
3 16 17 121 
3 52 105 89 
3 48 78 97 
3 42 110 81 
3 40 112 79 
3 52 79 112 
3 17 78 121 
3 60 110 99 
3 42 99 110 
3 10 108 93 
3 9 93 106 
3 6 109 94 
3 39 94 107 
3 56 120 86 
3 49 86 120 
3 63 117 118 
3 43 118 117 
3 47 119 81 
3 51 91 111 
3 53 106 93 
3 54 107 94 
3 53 93 108 
3 54 94 109 
3 16 121 83 
3 62 113 101 
3 36 91 123 
3 59 123 91 
3 68 102 120 
3 41 101 113 
3 49 120 102 
CELL_TYPES 206 
5  
5  
5  
5  
5  
5  
5  
5  
5  
5  
5  
5  
5  
5  
5  
5  
5  
5  
5  
5  
5  
5  
5  
5  
5  
5  
5  
5  
5  
5  
5  
5  
5  
5  
5  
5  
5  
5  
5  
5  
5  
5  
5  
5  
5  
5  
5  
5  
5  
5  
5  
5  
5  
5  
5  
5  
5  
5  
5  
5  
5  
5  
5  
5  
5  
5  
5  
5  
5  
5  
5  
5  
5  
5  
5  
5  
5  
5  
5  
5  
5  
5  
5  
5  
5  
5  
5  
5  
5  
5  
5  
5  
5  
5  
5  
5  
5  
5  
5  
5  
5  
5  
5  
5  
5  
5  
5  
5  
5  
5  
5  
5  
5  
5  
5  
5  
5  
5  
5  
5  
5  
5  
5  
5  
5  
5  
5  
5  
5  
5  
5  
5  
5  
5  
5  
5  
5  
5  
5  
5  
5  
5  
5  
5  
5  
5  
5  
5  
5  
5  
5  
5  
5  
5  
5  
5  
5  
5  
5  
5  
5  
5  
5  
5  
5  
5  
5  
5  
5  
5  
5  
5  
5  
5  
5  
5  
5  
5  
5  
5  
5  
5  
5  
5  
5  
5  
5  
5  
5  
5  
5  
5  
5  
5  
5  
5  
5  
5  
5  
5  
5  
5  
5  
5  
5  
5  
POINT_DATA 124 
SCALARS T float 
LOOKUP_TABLE default 
200.0 
200.0 
199.99999999999943 
199.9999999999995 
199.99999999999943 
199.99999999999918 
200.00000000000003 
200.0 
200.00000000000003 
200.0 
199.99999999999994 
199.99999999999986 
199.99999999999972 
199.99999999999955 
199.99999999999937 
199.99999999999943 
199.99999999999946 
199.99999999999946 
199.99999999999952 
199.9999999999995 
199.99999999999935 
199.99999999999946 
199.99999999999935 
199.99999999999932 
199.99999999999935 
199.99999999999932 
199.99999999999932 
199.9999999999994 
199.99999999999932 
199.99999999999932 
199.9999999999992 
199.99999999999918 
199.99999999999918 
199.99999999999935 
199.99999999999943 
199.99999999999957 
199.99999999999974 
199.99999999999994 
200.0 
200.00000000000006 
199.99999999999937 
199.9999999999993 
199.99999999999966 
199.99999999999997 
199.99999999999932 
199.99999999999935 
199.9999999999993 
199.9999999999995 
199.99999999999946 
199.99999999999943 
199.99999999999977 
199.99999999999983 
199.99999999999932 
199.99999999999997 
200.00000000000003 
199.99999999999952 
199.99999999999937 
199.99999999999935 
199.99999999999937 
199.99999999999966 
199.99999999999957 
199.99999999999932 
199.99999999999932 
200.0 
199.99999999999943 
199.99999999999983 
200.0 
199.9999999999993 
199.99999999999926 
199.99999999999937 
199.99999999999932 
199.99999999999974 
199.99999999999935 
199.99999999999935 
199.99999999999918 
199.99999999999946 
199.9999999999995 
199.99999999999932 
199.99999999999957 
199.99999999999926 
199.99999999999946 
199.99999999999957 
199.99999999999918 
199.99999999999946 
199.99999999999937 
199.99999999999937 
199.99999999999935 
199.9999999999995 
199.99999999999937 
199.99999999999935 
199.99999999999932 
199.99999999999974 
199.9999999999997 
199.99999999999994 
200.00000000000003 
199.9999999999999 
199.99999999999991 
199.9999999999995 
199.99999999999932 
199.99999999999966 
199.99999999999972 
199.99999999999935 
199.99999999999937 
199.99999999999935 
199.99999999999937 
199.99999999999932 
199.99999999999997 
200.00000000000003 
199.99999999999997 
200.00000000000006 
199.99999999999955 
199.99999999999991 
199.9999999999993 
199.99999999999932 
199.99999999999932 
199.99999999999935 
199.9999999999993 
200.00000000000003 
200.00000000000009 
199.9999999999996 
199.99999999999932 
199.9999999999995 
199.9999999999994 
199.99999999999963 
