# vtk DataFile Version 3.0 
Unstructured Grid 
ASCII 
DATASET UNSTRUCTURED_GRID
POINTS 437 float 
0.5 0 0  
1 0 0  
1 1 0  
0 1 0  
0 0.5 0  
0.5 0.5 0  
0.55 0 0  
0.6 0 0  
0.65 0 0  
0.7 0 0  
0.75 0 0  
0.8 0 0  
0.85 0 0  
0.9 0 0  
0.95 0 0  
1 0.05 0  
1 0.1 0  
1 0.15 0  
1 0.2 0  
1 0.25 0  
1 0.3 0  
1 0.35 0  
1 0.4 0  
1 0.45 0  
1 0.5 0  
1 0.55 0  
1 0.6 0  
1 0.65 0  
1 0.7 0  
1 0.75 0  
1 0.8 0  
1 0.85 0  
1 0.9 0  
1 0.95 0  
0.95 1 0  
0.9 1 0  
0.85 1 0  
0.8 1 0  
0.75 1 0  
0.7 1 0  
0.65 1 0  
0.6 1 0  
0.55 1 0  
0.5 1 0  
0.45 1 0  
0.4 1 0  
0.35 1 0  
0.3 1 0  
0.25 1 0  
0.2 1 0  
0.15 1 0  
0.1 1 0  
0.05 1 0  
0 0.95 0  
0 0.9 0  
0 0.85 0  
0 0.8 0  
0 0.75 0  
0 0.7 0  
0 0.65 0  
0 0.6 0  
0 0.55 0  
0.05 0.5 0  
0.1 0.5 0  
0.15 0.5 0  
0.2 0.5 0  
0.25 0.5 0  
0.3 0.5 0  
0.35 0.5 0  
0.4 0.5 0  
0.45 0.5 0  
0.5 0.45 0  
0.5 0.4 0  
0.5 0.35 0  
0.5 0.3 0  
0.5 0.25 0  
0.5 0.2 0  
0.5 0.15 0  
0.5 0.1 0  
0.5 0.05 0  
0.7067263 0.70899034 0  
0.7462131 0.3784907 0  
0.275 0.75 0  
0.49203128 0.7759238 0  
0.8004979 0.19051445 0  
0.8169689 0.5569046 0  
0.8379451 0.8232311 0  
0.6651841 0.5643974 0  
0.6586247 0.24525054 0  
0.39886913 0.6556846 0  
0.6357807 0.845222 0  
0.15416667 0.65416664 0  
0.15469871 0.8490102 0  
0.37710553 0.86057764 0  
0.8530772 0.68242943 0  
0.5399757 0.6405682 0  
0.87012184 0.30832314 0  
0.6218386 0.41301885 0  
0.8712292 0.43948308 0  
0.6270563 0.12650847 0  
0.2721758 0.6146517 0  
0.26237586 0.88543755 0  
0.5290535 0.8872315 0  
0.8881946 0.111421056 0  
0.59896 0.74404466 0  
0.73382306 0.10964348 0  
0.7398329 0.9080902 0  
0.7300285 0.48150903 0  
0.10457365 0.74805343 0  
0.5998279 0.32869247 0  
0.4013559 0.7541197 0  
0.8998196 0.8998196 0  
0.7425495 0.27230954 0  
0.90489763 0.5939467 0  
0.7320272 0.6158908 0  
0.90734863 0.2194375 0  
0.90656686 0.7697009 0  
0.74241894 0.80003285 0  
0.632743 0.65343165 0  
0.46277094 0.5961966 0  
0.08243797 0.5905297 0  
0.08731128 0.91282296 0  
0.44904137 0.91765434 0  
0.57323986 0.55955005 0  
0.91513485 0.5138866 0  
0.1836753 0.7418762 0  
0.5856236 0.20050126 0  
0.35569865 0.5818674 0  
0.4717501 0.69469833 0  
0.8203882 0.9111774 0  
0.19848472 0.58481354 0  
0.7232736 0.19122238 0  
0.6770922 0.32269323 0  
0.80834067 0.08196056 0  
0.9230353 0.37846187 0  
0.78589296 0.72803205 0  
0.18855475 0.91950625 0  
0.6022492 0.9193816 0  
0.07701049 0.6750049 0  
0.07779311 0.8285882 0  
0.33496442 0.69013095 0  
0.22651649 0.8130275 0  
0.33345127 0.9266774 0  
0.56306595 0.81706417 0  
0.79485846 0.43853834 0  
0.57445616 0.4795266 0  
0.30524647 0.8211264 0  
0.8098617 0.6293174 0  
0.66652167 0.7748195 0  
0.44695833 0.83554715 0  
0.58482915 0.07054804 0  
0.92909133 0.6757825 0  
0.82267326 0.3699049 0  
0.6750539 0.9307201 0  
0.6726681 0.069687515 0  
0.22284219 0.6692463 0  
0.9308683 0.2891792 0  
0.930985 0.8368545 0  
0.57183284 0.395735 0  
0.56719327 0.267426 0  
0.8295321 0.2563277 0  
0.702163 0.41558313 0  
0.6631986 0.48596716 0  
0.5332523 0.7285968 0  
0.9389338 0.15767792 0  
0.9392354 0.06812419 0  
0.74606097 0.5461627 0  
0.668234 0.16889203 0  
0.82325417 0.7682245 0  
0.86888987 0.49205798 0  
0.9373707 0.42941386 0  
0.27492446 0.5574591 0  
0.7591465 0.66997904 0  
0.5625162 0.14507365 0  
0.698026 0.84136397 0  
0.33979788 0.7690552 0  
0.4100188 0.5701878 0  
0.86549294 0.1689855 0  
0.15718786 0.7919015 0  
0.14695793 0.56156343 0  
0.49887148 0.9348564 0  
0.39005366 0.9400572 0  
0.2756479 0.94468254 0  
0.79987353 0.31934652 0  
0.79108334 0.48730215 0  
0.7893297 0.13692713 0  
0.8729007 0.040251754 0  
0.65027624 0.3686311 0  
0.94156647 0.94156647 0  
0.77622527 0.94636667 0  
0.6486954 0.7048788 0  
0.5761476 0.67128414 0  
0.77190053 0.83744544 0  
0.60624254 0.5986166 0  
0.7550012 0.06245598 0  
0.50134873 0.8411101 0  
0.68467325 0.64302444 0  
0.053087775 0.72582155 0  
0.139265 0.9408418 0  
0.95088 0.7243738 0  
0.9432815 0.5566516 0  
0.86394966 0.9434744 0  
0.6805639 0.11338498 0  
0.20661557 0.866214 0  
0.5136965 0.55900043 0  
0.61441326 0.79211885 0  
0.5533345 0.9442417 0  
0.86748934 0.5476702 0  
0.45131102 0.7447211 0  
0.9522712 0.6298776 0  
0.49115333 0.6454875 0  
0.57800794 0.87019897 0  
0.14164469 0.70855445 0  
0.38005453 0.7027296 0  
0.27368295 0.69533986 0  
0.049783085 0.62717026 0  
0.049414515 0.87215096 0  
0.62649876 0.043947894 0  
0.8786532 0.85014766 0  
0.34885973 0.6374005 0  
0.5949198 0.5178657 0  
0.86131465 0.63502216 0  
0.79260343 0.80256337 0  
0.7014114 0.5166631 0  
0.40068594 0.814811 0  
0.55082065 0.3157755 0  
0.6816506 0.59935296 0  
0.3207115 0.869895 0  
0.05274013 0.55274016 0  
0.05274013 0.94725984 0  
0.6400825 0.29462123 0  
0.70826656 0.24477807 0  
0.7619463 0.22610597 0  
0.052983053 0.7814943 0  
0.7439376 0.3234126 0  
0.95078784 0.88415176 0  
0.9592077 0.22841401 0  
0.84777594 0.1277937 0  
0.9565159 0.32835326 0  
0.87450755 0.38491434 0  
0.8723333 0.26038516 0  
0.2202579 0.9566307 0  
0.5511588 0.44135624 0  
0.89094824 0.71469563 0  
0.14088513 0.8952839 0  
0.9426072 0.110777475 0  
0.5598569 0.76635987 0  
0.7797588 0.58802515 0  
0.73662144 0.7500704 0  
0.80291736 0.6806566 0  
0.3250526 0.545103 0  
0.47699997 0.87967384 0  
0.109880045 0.6315259 0  
0.9565706 0.4731244 0  
0.9520049 0.7877815 0  
0.41847795 0.61317724 0  
0.7469016 0.43319932 0  
0.6651573 0.8785795 0  
0.6980314 0.36945662 0  
0.22855084 0.7651636 0  
0.5426688 0.22467211 0  
0.85128033 0.20839585 0  
0.6080812 0.24411796 0  
0.22691919 0.54427826 0  
0.42439926 0.70143026 0  
0.87087065 0.7973803 0  
0.71672744 0.95107883 0  
0.83949435 0.5922577 0  
0.34957552 0.8123493 0  
0.51278394 0.6086165 0  
0.15431206 0.6098422 0  
0.6343587 0.9556687 0  
0.8392547 0.8737899 0  
0.7109742 0.042080052 0  
0.23100297 0.62427217 0  
0.5484106 0.51544434 0  
0.42224586 0.8707757 0  
0.10496536 0.8650706 0  
0.11225842 0.7941315 0  
0.429402 0.95576584 0  
0.46295157 0.54450357 0  
0.10164671 0.5457688 0  
0.5822864 0.63314605 0  
0.37762833 0.53745234 0  
0.8275239 0.04005421 0  
0.8323437 0.41491747 0  
0.44464156 0.7891728 0  
0.90912354 0.4597161 0  
0.26412204 0.8401569 0  
0.26712763 0.7957094 0  
0.62024623 0.47111306 0  
0.7770051 0.8863074 0  
0.8221126 0.9602037 0  
0.5225849 0.68752897 0  
0.76535124 0.17708147 0  
0.31416538 0.59776855 0  
0.53816175 0.1840494 0  
0.6130816 0.16364412 0  
0.7091263 0.2886451 0  
0.22773811 0.71831167 0  
0.9012153 0.33257928 0  
0.18447237 0.53813106 0  
0.18472914 0.6879896 0  
0.82954866 0.46472684 0  
0.17961553 0.9633957 0  
0.36685705 0.9008585 0  
0.44457012 0.65111244 0  
0.8385268 0.7209097 0  
0.7115207 0.14475605 0  
0.09503517 0.95690435 0  
0.7880896 0.39571288 0  
0.96492094 0.38520482 0  
0.5563232 0.6018296 0  
0.31393582 0.73382735 0  
0.49519077 0.7332941 0  
0.9629974 0.5187325 0  
0.5415193 0.100338124 0  
0.9036664 0.6412981 0  
0.3244769 0.96671104 0  
0.2306904 0.9144942 0  
0.035453074 0.6754281 0  
0.035497267 0.82603335 0  
0.18655832 0.81865835 0  
0.54264426 0.042344484 0  
0.70526683 0.56849337 0  
0.5891552 0.9625355 0  
0.09987184 0.7080552 0  
0.6646015 0.4450029 0  
0.62016 0.87781084 0  
0.68724763 0.7468739 0  
0.6794575 0.21179324 0  
0.66522187 0.8161647 0  
0.5348051 0.47726545 0  
0.77173877 0.09966874 0  
0.30060795 0.6489708 0  
0.5900102 0.4408019 0  
0.6355171 0.20569986 0  
0.19041659 0.6358006 0  
0.7817328 0.35663295 0  
0.85770756 0.080021024 0  
0.90471005 0.95934963 0  
0.53831446 0.36966592 0  
0.24070142 0.5850949 0  
0.63882816 0.744377 0  
0.6058876 0.3669202 0  
0.9048971 0.4124307 0  
0.5905425 0.11210937 0  
0.6993429 0.7882209 0  
0.5656613 0.9052634 0  
0.7704826 0.63249016 0  
0.8522724 0.33958897 0  
0.296919 0.9075354 0  
0.9667555 0.83175755 0  
0.5987462 0.28922248 0  
0.11813834 0.6749375 0  
0.38161784 0.6131642 0  
0.6618531 0.40398476 0  
0.6370484 0.08659111 0  
0.038074076 0.5894313 0  
0.038074076 0.9105687 0  
0.96839094 0.6753669 0  
0.14384495 0.75045496 0  
0.5411818 0.84978336 0  
0.52673554 0.8019128 0  
0.7657028 0.46494102 0  
0.961649 0.03835645 0  
0.675 0.030283678 0  
0.7518289 0.70853835 0  
0.96001375 0.18740793 0  
0.9678583 0.27471802 0  
0.67516285 0.9681792 0  
0.59831095 0.83401567 0  
0.9073243 0.5525552 0  
0.8611736 0.90393615 0  
0.5795172 0.033180732 0  
0.5208923 0.96885955 0  
0.47072348 0.967185 0  
0.6462471 0.6071309 0  
0.52937275 0.275 0  
0.26006237 0.6504962 0  
0.73740774 0.8595233 0  
0.8331797 0.2957258 0  
0.47728643 0.80960673 0  
0.9208824 0.037562877 0  
0.9040851 0.18120942 0  
0.70257896 0.8997159 0  
0.97050655 0.074435726 0  
0.36017016 0.7398202 0  
0.7106061 0.0794504 0  
0.63714504 0.33196637 0  
0.890113 0.67338765 0  
0.17423429 0.88494647 0  
0.70125586 0.4576201 0  
0.9066001 0.8085411 0  
0.71885514 0.6719225 0  
0.36035147 0.9661565 0  
0.42251006 0.5290217 0  
0.9723008 0.4259288 0  
0.64294964 0.51980066 0  
0.78817964 0.03501066 0  
0.570402 0.7144006 0  
0.12055232 0.8290842 0  
0.19649777 0.7861254 0  
0.67484623 0.27905807 0  
0.36568695 0.6714864 0  
0.97151566 0.9645467 0  
0.8305832 0.16528471 0  
0.7877058 0.2744767 0  
0.4071035 0.9074601 0  
0.8660333 0.7541822 0  
0.75281197 0.5088334 0  
0.80377316 0.22890417 0  
0.7842619 0.53388166 0  
0.80658257 0.8577738 0  
0.8967399 0.28827333 0  
0.82637364 0.5137572 0  
0.9234294 0.25649244 0  
0.30519488 0.78316474 0  
0.8318979 0.6562427 0  
0.121106885 0.5892234 0  
0.97378284 0.925 0  
0.903588 0.07469306 0  
0.5322612 0.41135144 0  
0.63939583 0.91243213 0  
0.6109627 0.7054028 0  
0.57147133 0.35136378 0  
0.6785297 0.6806924 0  
0.90144104 0.14535177 0  
0.7748313 0.76722825 0  
0.7498974 0.14247963 0  
0.61986715 0.56109023 0  
0.36870277 0.77900666 0  
0.9640754 0.59000534 0  
0.9105131 0.86591715 0  
0.027604798 0.5276048 0  
0.027604798 0.9723952 0  
0.5214134 0.7612175 0  
CELLS 792 3168 
3 407 234 112 
3 413 222 86 
3 183 234 407 
3 108 278 233 
3 97 158 344 
3 124 207 169 
[...]
POINT_DATA 437 
SCALARS T float 
LOOKUP_TABLE default 
0.5000000000012853 
0.5000000000016745 
-1.1323991544231471e-23 
-7.196619754190855e-30 
8.602789098440232e-28 
1.4202502118173345e-14 
0.9999999999996442 
1.0000000000000075 
1.0000000000000024 
0.9999999999999976 
0.9999999999999893 
0.9999999999999951 
1.0000000000000169 
1.00000000000003 
0.9999999999995297 
4.5934051052869264e-12 
2.307138304037583e-12 
9.847001498014029e-13 
7.081093156566729e-13 
3.492430590436589e-13 
1.186531570177922e-13 
3.55860626613259e-14 
1.203382035446696e-14 
-2.1853021348235115e-15 
-5.5126345320263444e-15 
-2.5950835691298128e-15 
9.661807110181684e-17 
-4.602728113955833e-18 
2.4148214573580733e-18 
1.4155313606520652e-18 
8.008106581256194e-20 
9.89601446233632e-22 
-4.4190609964473685e-23 
5.0719900278713676e-23 
1.703557204353026e-22 
-1.0476893264542463e-22 
-3.8351612007782306e-22 
-4.255936832773667e-22 
1.309575342527597e-21 
-3.9346102049810265e-22 
7.243336058712072e-22 
-5.798519631369154e-23 
-2.4255702759202655e-24 
3.368718442774783e-23 
7.995950795842504e-24 
2.1888171078589704e-24 
-1.0892292070033298e-25 
6.621766075164027e-26 
4.0203206072808643e-26 
1.0999312022837734e-26 
5.3957572721032365e-27 
-1.6459049212469976e-28 
-1.2678884932932038e-28 
-3.1116816013914984e-29 
-1.359654292910908e-28 
-1.9223953659380471e-28 
4.987770319250675e-27 
9.281471745621454e-27 
4.7422024692210204e-27 
1.6480520301488474e-26 
1.9667737827546192e-26 
1.767142481638777e-26 
3.22183790139121e-25 
3.113630670234674e-25 
-8.514207375417098e-24 
2.9250481517453986e-23 
2.5551072300309533e-21 
1.7728360312673386e-21 
-6.949281391589418e-20 
1.127570291313821e-19 
8.289591344146287e-18 
7.406238075707081e-14 
2.2477942723900063e-13 
6.133485803846756e-13 
1.4831734080098437e-12 
2.1629784077161254e-12 
2.8264769708913004e-12 
3.714011659881915e-12 
2.9629312624065953e-12 
4.603841004696435e-12 
2.557497961943272e-5 
0.2534393073465584 
-1.0183599095769376e-11 
1.2164685696125878e-9 
0.9695611278786226 
0.00926411890941659 
-5.849870925270011e-8 
0.0018981171874058907 
0.6754377727884693 
-2.9525126147187795e-8 
1.6082066281999383e-8 
1.1226975898686295e-13 
-1.3292659996611566e-16 
-2.568771750614964e-13 
7.595288240446526e-5 
2.363523159354754e-6 
0.6104424643349383 
0.051961199191184186 
0.11106239481681567 
0.9714994814568577 
-8.432695804984198e-11 
1.1351508989271713e-13 
-8.423597523747044e-11 
1.006884039973311 
3.627127663766521e-7 
0.9944968392968041 
-4.738996652291702e-10 
0.038096770338298835 
-1.1820894549195604e-14 
0.21034208831085993 
1.147938850424787e-9 
-1.3122682605753487e-10 
0.6994749872540734 
0.0007089509821211441 
0.0008894205325869332 
0.8073938319481124 
-6.34702546813563e-8 
2.4127734385546706e-7 
4.0462878478526176e-5 
-1.6302230746584096e-6 
-1.2609993765673176e-14 
1.739154976317006e-17 
-6.530212205084876e-12 
0.0002861219501130447 
0.009466730791187943 
1.9806620973479958e-13 
0.7437471622370134 
2.9067403096442712e-8 
-7.396487101105833e-8 
7.081523484781528e-10 
8.338844710513353e-12 
0.9318588226575116 
0.3548308028415803 
0.9966484793770347 
0.15465378499455087 
1.2715315343570496e-5 
-6.522891638258672e-15 
-7.890676365591022e-11 
-5.422497994819293e-16 
5.457451334960698e-17 
9.334450497186968e-10 
8.218748290425324e-14 
-1.0793977393177394e-13 
-9.444912974932952e-10 
0.1294075187723891 
0.004851946624515515 
-3.659644852061583e-12 
0.0008482313676700807 
8.322375797609328e-7 
4.267648186693755e-11 
0.9965426283820829 
4.051342992139108e-6 
0.37245810884015856 
5.088510566049759e-10 
0.9972016975705195 
-8.76732797912581e-12 
0.39781036992335156 
4.1928462532239023e-10 
0.04350782696266656 
0.3791834061134488 
0.8568685276393321 
0.10791209412869682 
0.01692557506239643 
3.737001049726942e-8 
0.7499419487108173 
0.9550482807536087 
0.008675468405843018 
0.9358173368873499 
7.845971447188766e-7 
0.03597536079808227 
0.04404695582735086 
-5.03793235868484e-10 
0.00020254684434478865 
0.8676892510412414 
-3.503451670859038e-9 
1.2072138390853901e-11 
-1.1045299506950509e-7 
0.9785877760549152 
6.776569153119896e-15 
-1.955779767083322e-13 
-6.2796866965665865e-12 
-2.1524675263760216e-13 
-2.1517189086116285e-14 
0.586055283990936 
0.04917526799309573 
0.9977293528275849 
0.9945002444463242 
0.15680304391763208 
3.036975169986987e-11 
2.1468949450414713e-10 
8.948934587615639e-6 
3.971915090867892e-6 
1.3641509764596264e-8 
0.00018700928856278085 
1.0014530130105999 
-1.918004846672184e-10 
0.00020317864303871587 
-9.505861095391534e-16 
3.4131869568887444e-16 
-2.825561930655506e-7 
0.000971488030947949 
-3.520150684506405e-11 
0.9966491658985743 
1.2321839661789207e-14 
6.343695043641031e-5 
6.500929666069198e-8 
2.1759517083732282e-11 
0.0080168690584571 
2.116084550328139e-10 
1.2614657525703028e-6 
-6.975284598028962e-7 
6.956208402886307e-10 
1.4660049988759382e-13 
5.044752763235636e-9 
-1.6471176658348583e-11 
1.5761306542146623e-15 
3.3955824923574866e-18 
0.9985326845003746 
3.48678779949746e-9 
3.4830168512553724e-9 
0.0020754148382444255 
0.0004273089493051152 
1.8557588805159416e-7 
0.01163226075157961 
-6.803871062414831e-11 
0.18507337662361653 
0.0009171795310275077 
1.4682306289478603e-12 
5.689648163011259e-15 
3.0882090359239692e-18 
0.41146872408643625 
0.7576346612262754 
0.8855740965849026 
4.506829602710609e-16 
0.4727301782923416 
3.130469585808726e-11 
0.327165744008164 
1.0067177879175024 
0.133706071555191 
0.26645876573622956 
0.8104730920718853 
-3.082018161287392e-16 
0.011392765867860926 
2.674560170404947e-7 
-9.200488310780268e-16 
0.8491291646516309 
1.3473714114321886e-8 
0.003396485732287752 
4.403220640051724e-6 
9.14075094396257e-5 
-2.5412307511365327e-9 
-4.3094982192009025e-11 
-4.342958265877086e-14 
0.007165356838677036 
-1.3158099334351892e-8 
-4.0520924457918337e-7 
0.11055900500323476 
-7.0709889747701045e-9 
0.21689435294837908 
-6.161374318686349e-13 
0.492580328426988 
0.9691789255677988 
0.5970257781454374 
2.120478812109627e-11 
2.752103384995e-9 
-2.2434534439996786e-7 
-7.103130238517274e-11 
0.0029001283390998308 
-2.0734344634141605e-11 
1.2924262094908967e-6 
5.259457514801924e-13 
-4.0730761886297625e-11 
2.9604624003786644e-10 
1.000404677186696 
-2.8704361973308542e-11 
0.000981771588974499 
7.397842034261695e-12 
7.913564964032317e-17 
-2.6651265994136754e-15 
-3.6127759401450365e-13 
-2.9811043966092776e-6 
-7.074259740900766e-14 
3.0412207003625747e-5 
2.245182468844956e-8 
1.0005050357784802 
0.19899078075318374 
1.660109459568538e-10 
0.0430829614630466 
2.2260253329879178e-13 
-2.9569509581143336e-12 
0.012252031600609514 
-1.8473788181957634e-9 
1.6315322509217864e-11 
-1.0300034651070304e-7 
0.9694140096375221 
2.2649838513940125e-9 
0.5620622003155822 
0.9034224960834486 
0.5706047328868705 
-3.614739531852712e-12 
0.39543647765172785 
3.788076285361938e-12 
9.286617970472785e-13 
0.082322524967207 
9.516163311823719e-16 
2.87750682015199e-13 
-2.8113028107925877e-7 
1.3644086308075504e-5 
0.9807089672139329 
7.665703485722522e-17 
0.246595642633702 
0.041579340730731454 
2.8406614563800507e-5 
5.503471780582399e-11 
-9.733255938487026e-9 
0.001137207014745439 
0.7795772917822354 
0.00013321991722917576 
-2.623492351464051e-14 
-1.9338585801434204e-14 
7.736670414495059e-16 
1.0014259626824449e-16 
4.315565661487145e-14 
0.8739254769070426 
0.0031979342931738822 
-3.021571985174507e-12 
-2.516486517150965e-15 
0.04180156412434537 
1.8433970693359732e-9 
4.1922710033372144e-6 
0.8369286161205913 
1.0147682612878335e-7 
0.0032106836690977995 
0.9973921641682918 
9.37394432360593e-11 
0.018926868339570916 
0.8016993956329477 
-1.3071058045687468e-12 
0.3945014576462515 
0.9959637211545815 
-1.5763484791678257e-11 
0.059862913242621364 
-3.127959756174569e-11 
1.3474642147300687e-6 
0.1139414253491612 
0.12132588322411089 
0.9592992266622005 
4.89786983135308e-7 
1.0360204243963401e-10 
0.0008287025517704164 
0.5006065728924837 
2.0000859819061794e-13 
-3.1720836731142976e-10 
0.35662136492486124 
1.4982578871569455e-14 
-1.927744077749786e-8 
0.09505143195190621 
0.9986597682473306 
2.261941605705499e-15 
-2.4423673333656403e-18 
-1.5249174680412379e-6 
1.6781309157770625e-14 
-5.98474573297704e-10 
-3.1693650656167816e-10 
0.06843576113384556 
0.9168380280157538 
1.0004254556967491 
3.694169596286892e-5 
0.44006026538417337 
0.16415713364381437 
9.91900986226558e-11 
6.432019681553678e-9 
0.0036016887579882265 
7.85359179752748e-10 
0.9965031563609801 
6.2626957033624624e-12 
7.435075425555608e-13 
0.00034727459447871946 
0.2503246723694568 
-7.179816204052253e-11 
-2.6916197611204732e-9 
0.714497602494248 
2.164384202771123e-10 
0.9978823013715106 
0.9197359920181843 
1.4335223225861362e-10 
0.6195121296070307 
7.35712568676921e-10 
0.9977601878537228 
0.25342823656986513 
3.230614897499747e-5 
-4.631293667543533e-15 
0.04594732527992276 
2.5640092688099996e-8 
0.0001240102661903082 
-6.301784739155193e-14 
-9.430316443588683e-8 
0.012176910166116738 
0.004802481137901774 
1.0004028806689524 
4.52763079608032e-7 
-1.6408984860801695e-15 
3.62879443889573e-14 
0.5509961461817879 
-6.811645254553745e-11 
-9.195373006196782e-12 
0.9918702474051366 
0.7634724510073492 
-7.158359580283814e-14 
-2.1770920217437047e-7 
0.025483125131207242 
0.9140593578924553 
0.01589374033014477 
-1.619987827022469e-8 
0.5927297024581909 
0.02794734701760668 
0.5648005097587764 
-2.0617784519775555e-11 
0.0002595936535812762 
-1.6538970648787405e-13 
-6.455691329880435e-12 
1.0182739784678432 
0.01996804579972016 
-1.5910381715176752e-9 
2.854803791419625e-6 
0.11347359015411838 
5.051477793382673e-5 
0.9601857056113206 
2.0858073921693678e-6 
0.9910158906270523 
0.0009102388727249593 
2.0338327597125517e-11 
0.00010395740858979841 
2.9223944478511546e-10 
1.151205124551039e-15 
-1.1569533989225998e-18 
5.905760902605593e-9 
