# vtk DataFile Version 3.0 
Unstructured Grid 
ASCII 
DATASET UNSTRUCTURED_GRID
POINTS 437 float 
0.5 0 0  
1 0 0  
1 1 0  
0 1 0  
0 0.5 0  
0.5 0.5 0  
0.55 0 0  
0.6 0 0  
0.65 0 0  
0.7 0 0  
0.75 0 0  
0.8 0 0  
0.85 0 0  
0.9 0 0  
0.95 0 0  
1 0.05 0  
1 0.1 0  
1 0.15 0  
1 0.2 0  
1 0.25 0  
1 0.3 0  
1 0.35 0  
1 0.4 0  
1 0.45 0  
1 0.5 0  
1 0.55 0  
1 0.6 0  
1 0.65 0  
1 0.7 0  
1 0.75 0  
1 0.8 0  
1 0.85 0  
1 0.9 0  
1 0.95 0  
0.95 1 0  
0.9 1 0  
0.85 1 0  
0.8 1 0  
0.75 1 0  
0.7 1 0  
0.65 1 0  
0.6 1 0  
0.55 1 0  
0.5 1 0  
0.45 1 0  
0.4 1 0  
0.35 1 0  
0.3 1 0  
0.25 1 0  
0.2 1 0  
0.15 1 0  
0.1 1 0  
0.05 1 0  
0 0.95 0  
0 0.9 0  
0 0.85 0  
0 0.8 0  
0 0.75 0  
0 0.7 0  
0 0.65 0  
0 0.6 0  
0 0.55 0  
0.05 0.5 0  
0.1 0.5 0  
0.15 0.5 0  
0.2 0.5 0  
0.25 0.5 0  
0.3 0.5 0  
0.35 0.5 0  
0.4 0.5 0  
0.45 0.5 0  
0.5 0.45 0  
0.5 0.4 0  
0.5 0.35 0  
0.5 0.3 0  
0.5 0.25 0  
0.5 0.2 0  
0.5 0.15 0  
0.5 0.1 0  
0.5 0.05 0  
0.7067263 0.70899034 0  
0.7462131 0.3784907 0  
0.275 0.75 0  
0.49203128 0.7759238 0  
0.8004979 0.19051445 0  
0.8169689 0.5569046 0  
0.8379451 0.8232311 0  
0.6651841 0.5643974 0  
0.6586247 0.24525054 0  
0.39886913 0.6556846 0  
0.6357807 0.845222 0  
0.15416667 0.65416664 0  
0.15469871 0.8490102 0  
0.37710553 0.86057764 0  
0.8530772 0.68242943 0  
0.5399757 0.6405682 0  
0.87012184 0.30832314 0  
0.6218386 0.41301885 0  
0.8712292 0.43948308 0  
0.6270563 0.12650847 0  
0.2721758 0.6146517 0  
0.26237586 0.88543755 0  
0.5290535 0.8872315 0  
0.8881946 0.111421056 0  
0.59896 0.74404466 0  
0.73382306 0.10964348 0  
0.7398329 0.9080902 0  
0.7300285 0.48150903 0  
0.10457365 0.74805343 0  
0.5998279 0.32869247 0  
0.4013559 0.7541197 0  
0.8998196 0.8998196 0  
0.7425495 0.27230954 0  
0.90489763 0.5939467 0  
0.7320272 0.6158908 0  
0.90734863 0.2194375 0  
0.90656686 0.7697009 0  
0.74241894 0.80003285 0  
0.632743 0.65343165 0  
0.46277094 0.5961966 0  
0.08243797 0.5905297 0  
0.08731128 0.91282296 0  
0.44904137 0.91765434 0  
0.57323986 0.55955005 0  
0.91513485 0.5138866 0  
0.1836753 0.7418762 0  
0.5856236 0.20050126 0  
0.35569865 0.5818674 0  
0.4717501 0.69469833 0  
0.8203882 0.9111774 0  
0.19848472 0.58481354 0  
0.7232736 0.19122238 0  
0.6770922 0.32269323 0  
0.80834067 0.08196056 0  
0.9230353 0.37846187 0  
0.78589296 0.72803205 0  
0.18855475 0.91950625 0  
0.6022492 0.9193816 0  
0.07701049 0.6750049 0  
0.07779311 0.8285882 0  
0.33496442 0.69013095 0  
0.22651649 0.8130275 0  
0.33345127 0.9266774 0  
0.56306595 0.81706417 0  
0.79485846 0.43853834 0  
0.57445616 0.4795266 0  
0.30524647 0.8211264 0  
0.8098617 0.6293174 0  
0.66652167 0.7748195 0  
0.44695833 0.83554715 0  
0.58482915 0.07054804 0  
0.92909133 0.6757825 0  
0.82267326 0.3699049 0  
0.6750539 0.9307201 0  
0.6726681 0.069687515 0  
0.22284219 0.6692463 0  
0.9308683 0.2891792 0  
0.930985 0.8368545 0  
0.57183284 0.395735 0  
0.56719327 0.267426 0  
0.8295321 0.2563277 0  
0.702163 0.41558313 0  
0.6631986 0.48596716 0  
0.5332523 0.7285968 0  
0.9389338 0.15767792 0  
0.9392354 0.06812419 0  
0.74606097 0.5461627 0  
0.668234 0.16889203 0  
0.82325417 0.7682245 0  
0.86888987 0.49205798 0  
0.9373707 0.42941386 0  
0.27492446 0.5574591 0  
0.7591465 0.66997904 0  
0.5625162 0.14507365 0  
0.698026 0.84136397 0  
0.33979788 0.7690552 0  
0.4100188 0.5701878 0  
0.86549294 0.1689855 0  
0.15718786 0.7919015 0  
0.14695793 0.56156343 0  
0.49887148 0.9348564 0  
0.39005366 0.9400572 0  
0.2756479 0.94468254 0  
0.79987353 0.31934652 0  
0.79108334 0.48730215 0  
0.7893297 0.13692713 0  
0.8729007 0.040251754 0  
0.65027624 0.3686311 0  
0.94156647 0.94156647 0  
0.77622527 0.94636667 0  
0.6486954 0.7048788 0  
0.5761476 0.67128414 0  
0.77190053 0.83744544 0  
0.60624254 0.5986166 0  
0.7550012 0.06245598 0  
0.50134873 0.8411101 0  
0.68467325 0.64302444 0  
0.053087775 0.72582155 0  
0.139265 0.9408418 0  
0.95088 0.7243738 0  
0.9432815 0.5566516 0  
0.86394966 0.9434744 0  
0.6805639 0.11338498 0  
0.20661557 0.866214 0  
0.5136965 0.55900043 0  
0.61441326 0.79211885 0  
0.5533345 0.9442417 0  
0.86748934 0.5476702 0  
0.45131102 0.7447211 0  
0.9522712 0.6298776 0  
0.49115333 0.6454875 0  
0.57800794 0.87019897 0  
0.14164469 0.70855445 0  
0.38005453 0.7027296 0  
0.27368295 0.69533986 0  
0.049783085 0.62717026 0  
0.049414515 0.87215096 0  
0.62649876 0.043947894 0  
0.8786532 0.85014766 0  
0.34885973 0.6374005 0  
0.5949198 0.5178657 0  
0.86131465 0.63502216 0  
0.79260343 0.80256337 0  
0.7014114 0.5166631 0  
0.40068594 0.814811 0  
0.55082065 0.3157755 0  
0.6816506 0.59935296 0  
0.3207115 0.869895 0  
0.05274013 0.55274016 0  
0.05274013 0.94725984 0  
0.6400825 0.29462123 0  
0.70826656 0.24477807 0  
0.7619463 0.22610597 0  
0.052983053 0.7814943 0  
0.7439376 0.3234126 0  
0.95078784 0.88415176 0  
0.9592077 0.22841401 0  
0.84777594 0.1277937 0  
0.9565159 0.32835326 0  
0.87450755 0.38491434 0  
0.8723333 0.26038516 0  
0.2202579 0.9566307 0  
0.5511588 0.44135624 0  
0.89094824 0.71469563 0  
0.14088513 0.8952839 0  
0.9426072 0.110777475 0  
0.5598569 0.76635987 0  
0.7797588 0.58802515 0  
0.73662144 0.7500704 0  
0.80291736 0.6806566 0  
0.3250526 0.545103 0  
0.47699997 0.87967384 0  
0.109880045 0.6315259 0  
0.9565706 0.4731244 0  
0.9520049 0.7877815 0  
0.41847795 0.61317724 0  
0.7469016 0.43319932 0  
0.6651573 0.8785795 0  
0.6980314 0.36945662 0  
0.22855084 0.7651636 0  
0.5426688 0.22467211 0  
0.85128033 0.20839585 0  
0.6080812 0.24411796 0  
0.22691919 0.54427826 0  
0.42439926 0.70143026 0  
0.87087065 0.7973803 0  
0.71672744 0.95107883 0  
0.83949435 0.5922577 0  
0.34957552 0.8123493 0  
0.51278394 0.6086165 0  
0.15431206 0.6098422 0  
0.6343587 0.9556687 0  
0.8392547 0.8737899 0  
0.7109742 0.042080052 0  
0.23100297 0.62427217 0  
0.5484106 0.51544434 0  
0.42224586 0.8707757 0  
0.10496536 0.8650706 0  
0.11225842 0.7941315 0  
0.429402 0.95576584 0  
0.46295157 0.54450357 0  
0.10164671 0.5457688 0  
0.5822864 0.63314605 0  
0.37762833 0.53745234 0  
0.8275239 0.04005421 0  
0.8323437 0.41491747 0  
0.44464156 0.7891728 0  
0.90912354 0.4597161 0  
0.26412204 0.8401569 0  
0.26712763 0.7957094 0  
0.62024623 0.47111306 0  
0.7770051 0.8863074 0  
0.8221126 0.9602037 0  
0.5225849 0.68752897 0  
0.76535124 0.17708147 0  
0.31416538 0.59776855 0  
0.53816175 0.1840494 0  
0.6130816 0.16364412 0  
0.7091263 0.2886451 0  
0.22773811 0.71831167 0  
0.9012153 0.33257928 0  
0.18447237 0.53813106 0  
0.18472914 0.6879896 0  
0.82954866 0.46472684 0  
0.17961553 0.9633957 0  
0.36685705 0.9008585 0  
0.44457012 0.65111244 0  
0.8385268 0.7209097 0  
0.7115207 0.14475605 0  
0.09503517 0.95690435 0  
0.7880896 0.39571288 0  
0.96492094 0.38520482 0  
0.5563232 0.6018296 0  
0.31393582 0.73382735 0  
0.49519077 0.7332941 0  
0.9629974 0.5187325 0  
0.5415193 0.100338124 0  
0.9036664 0.6412981 0  
0.3244769 0.96671104 0  
0.2306904 0.9144942 0  
0.035453074 0.6754281 0  
0.035497267 0.82603335 0  
0.18655832 0.81865835 0  
0.54264426 0.042344484 0  
0.70526683 0.56849337 0  
0.5891552 0.9625355 0  
0.09987184 0.7080552 0  
0.6646015 0.4450029 0  
0.62016 0.87781084 0  
0.68724763 0.7468739 0  
0.6794575 0.21179324 0  
0.66522187 0.8161647 0  
0.5348051 0.47726545 0  
0.77173877 0.09966874 0  
0.30060795 0.6489708 0  
0.5900102 0.4408019 0  
0.6355171 0.20569986 0  
0.19041659 0.6358006 0  
0.7817328 0.35663295 0  
0.85770756 0.080021024 0  
0.90471005 0.95934963 0  
0.53831446 0.36966592 0  
0.24070142 0.5850949 0  
0.63882816 0.744377 0  
0.6058876 0.3669202 0  
0.9048971 0.4124307 0  
0.5905425 0.11210937 0  
0.6993429 0.7882209 0  
0.5656613 0.9052634 0  
0.7704826 0.63249016 0  
0.8522724 0.33958897 0  
0.296919 0.9075354 0  
0.9667555 0.83175755 0  
0.5987462 0.28922248 0  
0.11813834 0.6749375 0  
0.38161784 0.6131642 0  
0.6618531 0.40398476 0  
0.6370484 0.08659111 0  
0.038074076 0.5894313 0  
0.038074076 0.9105687 0  
0.96839094 0.6753669 0  
0.14384495 0.75045496 0  
0.5411818 0.84978336 0  
0.52673554 0.8019128 0  
0.7657028 0.46494102 0  
0.961649 0.03835645 0  
0.675 0.030283678 0  
0.7518289 0.70853835 0  
0.96001375 0.18740793 0  
0.9678583 0.27471802 0  
0.67516285 0.9681792 0  
0.59831095 0.83401567 0  
0.9073243 0.5525552 0  
0.8611736 0.90393615 0  
0.5795172 0.033180732 0  
0.5208923 0.96885955 0  
0.47072348 0.967185 0  
0.6462471 0.6071309 0  
0.52937275 0.275 0  
0.26006237 0.6504962 0  
0.73740774 0.8595233 0  
0.8331797 0.2957258 0  
0.47728643 0.80960673 0  
0.9208824 0.037562877 0  
0.9040851 0.18120942 0  
0.70257896 0.8997159 0  
0.97050655 0.074435726 0  
0.36017016 0.7398202 0  
0.7106061 0.0794504 0  
0.63714504 0.33196637 0  
0.890113 0.67338765 0  
0.17423429 0.88494647 0  
0.70125586 0.4576201 0  
0.9066001 0.8085411 0  
0.71885514 0.6719225 0  
0.36035147 0.9661565 0  
0.42251006 0.5290217 0  
0.9723008 0.4259288 0  
0.64294964 0.51980066 0  
0.78817964 0.03501066 0  
0.570402 0.7144006 0  
0.12055232 0.8290842 0  
0.19649777 0.7861254 0  
0.67484623 0.27905807 0  
0.36568695 0.6714864 0  
0.97151566 0.9645467 0  
0.8305832 0.16528471 0  
0.7877058 0.2744767 0  
0.4071035 0.9074601 0  
0.8660333 0.7541822 0  
0.75281197 0.5088334 0  
0.80377316 0.22890417 0  
0.7842619 0.53388166 0  
0.80658257 0.8577738 0  
0.8967399 0.28827333 0  
0.82637364 0.5137572 0  
0.9234294 0.25649244 0  
0.30519488 0.78316474 0  
0.8318979 0.6562427 0  
0.121106885 0.5892234 0  
0.97378284 0.925 0  
0.903588 0.07469306 0  
0.5322612 0.41135144 0  
0.63939583 0.91243213 0  
0.6109627 0.7054028 0  
0.57147133 0.35136378 0  
0.6785297 0.6806924 0  
0.90144104 0.14535177 0  
0.7748313 0.76722825 0  
0.7498974 0.14247963 0  
0.61986715 0.56109023 0  
0.36870277 0.77900666 0  
0.9640754 0.59000534 0  
0.9105131 0.86591715 0  
0.027604798 0.5276048 0  
0.027604798 0.9723952 0  
0.5214134 0.7612175 0  
CELLS 792 3168 
3 407 234 112 
3 413 222 86 
3 183 234 407 
3 108 278 233 
3 97 158 344 
3 124 207 169 
[...]
POINT_DATA 437 
SCALARS T float 
LOOKUP_TABLE default 
0.5000000000012734 
0.5000000000016738 
2.390925043271254e-25 
-2.242877020743521e-32 
-2.7402456140476716e-29 
-5.572079104893272e-17 
0.9999999999996323 
1.0000000000000084 
1.0000000000000044 
0.9999999999999996 
0.9999999999999961 
1.0000000000000084 
1.0000000000000258 
1.0000000000000306 
0.9999999999995286 
4.592523928140347e-12 
2.291845748136334e-12 
9.883059382037642e-13 
6.833828511339503e-13 
2.477056570491031e-13 
8.848532877498837e-14 
-1.0453083379833046e-14 
-2.439564853554542e-15 
2.2631296192887036e-16 
-1.4924667002020738e-15 
-9.043648478054168e-17 
1.338742605263693e-18 
9.284480149899654e-19 
1.8467505490529066e-21 
-1.1442982754504135e-20 
3.360685216718045e-23 
-2.806846522386689e-24 
-3.216002580302048e-24 
1.058478787823734e-24 
-1.1640831200049645e-24 
7.052094011793916e-25 
2.540537837770552e-25 
1.2024750363110567e-24 
6.163300027174847e-24 
-4.232229692569201e-24 
-4.030439015407017e-25 
6.669530016077991e-25 
2.533506669871933e-25 
2.6389993058142035e-26 
4.1402027869729227e-26 
3.6376224727243975e-26 
4.613009319505916e-28 
2.1866804480972e-27 
1.1130195597635071e-27 
3.463772263223543e-29 
-2.6940914328635455e-29 
-1.1876525727073335e-30 
-1.30694466379713e-30 
1.742784421605678e-31 
2.3033908851619285e-30 
-6.215782956608566e-30 
-2.3190151279295768e-29 
-2.825632290791931e-29 
-3.5667092118163776e-29 
-8.95289681536692e-29 
-1.4578396193565987e-28 
-1.5061097078143507e-28 
4.519619402414418e-27 
4.693844025880788e-27 
-1.0916055031205902e-25 
1.1567105793674122e-24 
2.032139985770016e-23 
-1.6513110927866306e-22 
-1.3910788574652836e-23 
-3.567421222217643e-22 
-1.0724455305678135e-19 
-1.1076712919084455e-16 
4.180640542346363e-15 
3.7532268128547094e-14 
2.8377990414581204e-13 
6.980589032515555e-13 
1.493072027623759e-12 
2.8838056213082125e-12 
2.608938805868835e-12 
4.624869811948727e-12 
-1.517158878687409e-8 
0.03405488439793775 
-3.3249680799359455e-14 
-7.03902734350558e-12 
0.8011686417936182 
0.00017453888990656488 
-2.530160934708612e-12 
-2.008796041891881e-6 
0.3018288152691839 
-2.5667566532735793e-10 
2.1520940954794002e-11 
-5.105446160103016e-16 
4.468636959802479e-17 
5.675504581894266e-14 
8.921113720601656e-8 
8.336709534369115e-9 
0.2726648579793945 
0.0018318002670601541 
0.013100160502456874 
0.8710503359392587 
4.0629765701682607e-13 
-1.114638129281723e-15 
-2.7240186531521794e-14 
1.0005071344625371 
-7.998313559785955e-11 
0.9624957369100918 
-2.187776492946357e-12 
0.0010390218876163827 
-6.205959286851461e-17 
0.030248239926206538 
6.796966848238615e-12 
-1.4944295382035866e-12 
0.30243640075837236 
8.584052433597863e-6 
-2.3921746749811325e-7 
0.669357696687409 
1.2575908632628622e-9 
-5.26048406462087e-10 
3.199644557937167e-8 
1.8213275717974763e-8 
8.82300987946865e-17 
-2.9239150050560234e-19 
-2.578816026185674e-14 
-1.3364462749527195e-6 
0.0004804782643357747 
2.1295777378827488e-15 
0.42488679239487614 
7.271416655346559e-11 
-1.0015257238216959e-10 
6.410508982504219e-14 
8.01010237797021e-14 
0.696196362658206 
0.0733947689678559 
0.9996753300173463 
0.041952816515199776 
-1.8316700942441496e-8 
5.906687691275427e-18 
-3.8546923016152334e-13 
5.4593934064981895e-17 
3.98578673957487e-18 
2.4834436522816003e-12 
7.251627409970562e-16 
-2.2925941427446692e-15 
8.332888418931806e-12 
0.010565467894036725 
-5.62810137480942e-6 
2.813266313224653e-15 
4.064526343486297e-6 
-5.230725096299737e-11 
3.3330303589020665e-13 
0.9786485830820484 
-2.1640078096519546e-8 
0.07765921206145622 
2.60768937067771e-12 
0.9884740134593749 
-1.72437066682731e-14 
0.23387852953556731 
-1.5860416820274277e-11 
0.0014740718201804316 
0.10537204024066384 
0.5144468129128413 
0.006639336271699587 
0.00016292231976898784 
-1.405251579927376e-10 
0.7266095144693147 
0.9538383186173987 
0.00010370292966855184 
0.7352747639815168 
2.2016731652180285e-9 
0.002178965004720263 
0.007348032884060167 
-5.676126541853528e-12 
5.102584326485767e-7 
0.682241859351095 
-5.271442023339439e-11 
-1.977590450649565e-13 
-3.434907891423931e-9 
0.9110547478722018 
-2.9472649335741336e-16 
-5.312035945692332e-15 
-5.1388790833753005e-15 
-3.164476189900418e-15 
-2.963427179472567e-17 
0.18955588353457642 
0.0020072903494991632 
0.953187667482414 
0.9940620597044227 
0.015549490226509786 
3.477720542821934e-13 
2.2081781474611163e-13 
-8.22495259338901e-9 
4.354710017473614e-9 
1.2993016525183782e-10 
-1.3309599574504822e-7 
0.9984043454019264 
5.319415027260115e-13 
-5.385215820748635e-8 
4.979118505857431e-18 
2.584469910770434e-18 
2.877630010937254e-9 
2.777763554784177e-5 
-1.1115405694815161e-13 
0.9501802878067607 
-1.7225069813742378e-16 
-2.136438390921755e-8 
-3.650974385129326e-11 
-1.3092044761537845e-14 
0.00020757992989459793 
1.835557426930174e-11 
-1.8582288246053401e-7 
1.2891018907377907e-9 
1.0028504079096947e-13 
-2.621326224437986e-16 
2.4263229289840773e-11 
-3.670900871263402e-13 
4.069296613785355e-17 
-6.8470996860187095e-19 
0.9953956302076303 
3.6225416921821765e-12 
2.8944842886050597e-11 
-1.250651867568428e-5 
1.6350341325086437e-6 
3.135006246633393e-10 
8.537526936335686e-5 
-8.285341748782647e-13 
0.02481955261115892 
1.275818251466957e-6 
1.7552745211117388e-14 
9.431693548108445e-17 
2.2273443629820244e-21 
0.10383077934665927 
0.384831330745661 
0.5709591500574791 
1.0318436338675007e-17 
0.11948680090498347 
7.113990440086077e-13 
0.2705912140608256 
0.9873729882191435 
0.06103595529946319 
0.05800782278215956 
0.511824478684935 
3.944145183421762e-17 
4.949714009425777e-5 
-6.8700134142268255e-9 
-1.5275412331079002e-18 
0.848124921037298 
-4.675718518621127e-11 
2.36014818607755e-5 
6.396354361754194e-9 
-6.572711221151035e-8 
1.700744657057683e-11 
-5.952171378133156e-14 
-3.7299131180866585e-16 
0.0007638124078699559 
-3.0062981366180856e-11 
-3.748345691267415e-11 
0.007060791953554379 
-1.4001998011055367e-11 
0.0261219218984446 
3.427591019175997e-15 
0.21092940421047646 
0.7826131822180387 
0.23950745227085987 
9.500245561799244e-14 
-2.6859112807543935e-11 
-2.404486110571767e-10 
-9.980084863923618e-13 
3.499860475744956e-5 
-1.2159034342310764e-13 
3.5965083230931755e-8 
3.2027559937831287e-16 
2.466600389956539e-13 
-1.803526478887951e-13 
0.9981772691441868 
-1.2252867570766554e-13 
-3.962714147080699e-6 
1.3677042770779565e-13 
-1.3750401383796829e-18 
8.69250051914465e-18 
1.412554867469808e-16 
1.8149414766229315e-8 
-4.395058540182966e-16 
9.46126218632904e-9 
1.9281533047732979e-10 
0.9982703420389923 
0.02599195006985624 
-1.92602303917737e-12 
0.004471084824863588 
2.0465161552449566e-15 
-2.6341352633333526e-15 
2.3620222485796768e-5 
-5.800348961907436e-12 
8.693360462839951e-14 
2.5781423144664126e-11 
0.8143595466630188 
2.3557675479499446e-11 
0.34651154998748684 
0.6824469251958195 
0.19606806146239703 
1.499202155681511e-14 
0.15237243761012564 
4.198644566803696e-14 
1.0030024471777682e-14 
0.005799732452110085 
6.171347263934677e-18 
4.014980008557962e-15 
-1.2736273258079272e-9 
8.261583226595408e-9 
0.88315202883006 
-3.286470297141218e-20 
0.03264514493065513 
0.012108718898551786 
-1.6738324936114368e-8 
-6.867469772050138e-14 
-4.330571524382489e-11 
9.678276975096593e-5 
0.7072923868778843 
8.23190567195885e-7 
-5.747217995656774e-17 
-2.403683670235185e-16 
-2.6145209735606816e-18 
-1.3653623803627923e-18 
1.2168099477960644e-16 
0.8778011222927623 
1.119361309896291e-5 
2.41960738846157e-14 
-8.304864713386152e-17 
0.0010637926627479761 
7.010730276291342e-13 
-1.5468480080828174e-9 
0.5200181203969456 
8.929752177823732e-11 
-7.735513241831054e-6 
0.9866840976594906 
5.338716792945834e-13 
0.00023283146709485546 
0.47815123028149603 
-1.5644166590397696e-15 
0.08226727619872944 
0.9964329779387718 
1.297785855422617e-13 
0.0029096966817808443 
-4.489359379196881e-13 
-1.8003415321958723e-9 
0.008928597570202111 
0.02159275490896586 
0.880050030864642 
6.552068930103365e-10 
-1.194931218313284e-13 
2.7956803010688623e-6 
0.15881672564523971 
-5.582420984577289e-17 
-2.957941196914288e-12 
0.08642648957129409 
-9.265452768381228e-18 
-2.211988001119511e-10 
0.005612023516729555 
0.9726802991699203 
7.188684277476252e-18 
1.3970744741066136e-19 
-1.466300910729133e-9 
-2.4929842739914075e-16 
1.9857152528743406e-12 
8.245604766824226e-13 
0.003255883708487749 
0.916500462338777 
0.9994952768570567 
6.408160667623362e-8 
0.4175773457764619 
0.10953855301947363 
1.374455479004209e-14 
4.7787406952173745e-12 
0.00011851369608882884 
-1.187562148105521e-12 
0.9934786151630425 
4.274597136755691e-15 
4.313147690696681e-15 
-5.828007889705009e-8 
0.06194667612279157 
-6.753437767452195e-13 
3.4865419050514185e-11 
0.31862561915221665 
6.054735056718508e-13 
0.9979122429611884 
0.854743506805138 
8.471686636083005e-12 
0.618498830441018 
3.7507591631771224e-12 
0.9865510905900744 
0.03990217612780575 
4.3283494871521804e-8 
-2.7812834049913376e-17 
0.0012745685877519402 
1.8330849694250282e-10 
-1.1086133646229895e-7 
-4.445256215238822e-16 
-1.0911856508256268e-9 
0.002475428872064896 
-3.782070065152992e-7 
0.9978070940072645 
1.776390169368426e-11 
2.0110263583003096e-17 
-3.8975859421251147e-16 
0.18810221130837393 
-2.3488926828871126e-11 
-7.404236964265697e-14 
0.9128180062789953 
0.35363149785053094 
-3.2019419763253677e-15 
-1.2730400986896402e-9 
0.0005692785800321966 
0.6216756201498741 
0.0003058072954057615 
-2.58395014895788e-11 
0.3230106301611531 
0.0010121831512872658 
0.40183582942129514 
-1.1450951255033955e-13 
5.372997250438356e-7 
-1.8994337012479976e-15 
-8.084176828124322e-14 
1.0169564778838192 
0.00028325940868704645 
-2.0389031492727838e-12 
2.4437114263043196e-9 
0.00954134442580274 
-3.742226648311441e-8 
0.9346269802848163 
-4.177180845776237e-9 
0.9195660220201753 
-2.051132588108439e-6 
-5.532075433156473e-13 
2.43409673865071e-6 
-6.953317535753418e-12 
3.3553615128385157e-18 
-3.2748077102901793e-21 
-2.6515079402447358e-11 
