# vtk DataFile Version 3.0 
Unstructured Grid 
ASCII 
DATASET UNSTRUCTURED_GRID
POINTS 437 float 
0.5 0 0  
1 0 0  
1 1 0  
0 1 0  
0 0.5 0  
0.5 0.5 0  
0.55 0 0  
0.6 0 0  
0.65 0 0  
0.7 0 0  
0.75 0 0  
0.8 0 0  
0.85 0 0  
0.9 0 0  
0.95 0 0  
1 0.05 0  
1 0.1 0  
1 0.15 0  
1 0.2 0  
1 0.25 0  
1 0.3 0  
1 0.35 0  
1 0.4 0  
1 0.45 0  
1 0.5 0  
1 0.55 0  
1 0.6 0  
1 0.65 0  
1 0.7 0  
1 0.75 0  
1 0.8 0  
1 0.85 0  
1 0.9 0  
1 0.95 0  
0.95 1 0  
0.9 1 0  
0.85 1 0  
0.8 1 0  
0.75 1 0  
0.7 1 0  
0.65 1 0  
0.6 1 0  
0.55 1 0  
0.5 1 0  
0.45 1 0  
0.4 1 0  
0.35 1 0  
0.3 1 0  
0.25 1 0  
0.2 1 0  
0.15 1 0  
0.1 1 0  
0.05 1 0  
0 0.95 0  
0 0.9 0  
0 0.85 0  
0 0.8 0  
0 0.75 0  
0 0.7 0  
0 0.65 0  
0 0.6 0  
0 0.55 0  
0.05 0.5 0  
0.1 0.5 0  
0.15 0.5 0  
0.2 0.5 0  
0.25 0.5 0  
0.3 0.5 0  
0.35 0.5 0  
0.4 0.5 0  
0.45 0.5 0  
0.5 0.45 0  
0.5 0.4 0  
0.5 0.35 0  
0.5 0.3 0  
0.5 0.25 0  
0.5 0.2 0  
0.5 0.15 0  
0.5 0.1 0  
0.5 0.05 0  
0.7067263 0.70899034 0  
0.7462131 0.3784907 0  
0.275 0.75 0  
0.49203128 0.7759238 0  
0.8004979 0.19051445 0  
0.8169689 0.5569046 0  
0.8379451 0.8232311 0  
0.6651841 0.5643974 0  
0.6586247 0.24525054 0  
0.39886913 0.6556846 0  
0.6357807 0.845222 0  
0.15416667 0.65416664 0  
0.15469871 0.8490102 0  
0.37710553 0.86057764 0  
0.8530772 0.68242943 0  
0.5399757 0.6405682 0  
0.87012184 0.30832314 0  
0.6218386 0.41301885 0  
0.8712292 0.43948308 0  
0.6270563 0.12650847 0  
0.2721758 0.6146517 0  
0.26237586 0.88543755 0  
0.5290535 0.8872315 0  
0.8881946 0.111421056 0  
0.59896 0.74404466 0  
0.73382306 0.10964348 0  
0.7398329 0.9080902 0  
0.7300285 0.48150903 0  
0.10457365 0.74805343 0  
0.5998279 0.32869247 0  
0.4013559 0.7541197 0  
0.8998196 0.8998196 0  
0.7425495 0.27230954 0  
0.90489763 0.5939467 0  
0.7320272 0.6158908 0  
0.90734863 0.2194375 0  
0.90656686 0.7697009 0  
0.74241894 0.80003285 0  
0.632743 0.65343165 0  
0.46277094 0.5961966 0  
0.08243797 0.5905297 0  
0.08731128 0.91282296 0  
0.44904137 0.91765434 0  
0.57323986 0.55955005 0  
0.91513485 0.5138866 0  
0.1836753 0.7418762 0  
0.5856236 0.20050126 0  
0.35569865 0.5818674 0  
0.4717501 0.69469833 0  
0.8203882 0.9111774 0  
0.19848472 0.58481354 0  
0.7232736 0.19122238 0  
0.6770922 0.32269323 0  
0.80834067 0.08196056 0  
0.9230353 0.37846187 0  
0.78589296 0.72803205 0  
0.18855475 0.91950625 0  
0.6022492 0.9193816 0  
0.07701049 0.6750049 0  
0.07779311 0.8285882 0  
0.33496442 0.69013095 0  
0.22651649 0.8130275 0  
0.33345127 0.9266774 0  
0.56306595 0.81706417 0  
0.79485846 0.43853834 0  
0.57445616 0.4795266 0  
0.30524647 0.8211264 0  
0.8098617 0.6293174 0  
0.66652167 0.7748195 0  
0.44695833 0.83554715 0  
0.58482915 0.07054804 0  
0.92909133 0.6757825 0  
0.82267326 0.3699049 0  
0.6750539 0.9307201 0  
0.6726681 0.069687515 0  
0.22284219 0.6692463 0  
0.9308683 0.2891792 0  
0.930985 0.8368545 0  
0.57183284 0.395735 0  
0.56719327 0.267426 0  
0.8295321 0.2563277 0  
0.702163 0.41558313 0  
0.6631986 0.48596716 0  
0.5332523 0.7285968 0  
0.9389338 0.15767792 0  
0.9392354 0.06812419 0  
0.74606097 0.5461627 0  
0.668234 0.16889203 0  
0.82325417 0.7682245 0  
0.86888987 0.49205798 0  
0.9373707 0.42941386 0  
0.27492446 0.5574591 0  
0.7591465 0.66997904 0  
0.5625162 0.14507365 0  
0.698026 0.84136397 0  
0.33979788 0.7690552 0  
0.4100188 0.5701878 0  
0.86549294 0.1689855 0  
0.15718786 0.7919015 0  
0.14695793 0.56156343 0  
0.49887148 0.9348564 0  
0.39005366 0.9400572 0  
0.2756479 0.94468254 0  
0.79987353 0.31934652 0  
0.79108334 0.48730215 0  
0.7893297 0.13692713 0  
0.8729007 0.040251754 0  
0.65027624 0.3686311 0  
0.94156647 0.94156647 0  
0.77622527 0.94636667 0  
0.6486954 0.7048788 0  
0.5761476 0.67128414 0  
0.77190053 0.83744544 0  
0.60624254 0.5986166 0  
0.7550012 0.06245598 0  
0.50134873 0.8411101 0  
0.68467325 0.64302444 0  
0.053087775 0.72582155 0  
0.139265 0.9408418 0  
0.95088 0.7243738 0  
0.9432815 0.5566516 0  
0.86394966 0.9434744 0  
0.6805639 0.11338498 0  
0.20661557 0.866214 0  
0.5136965 0.55900043 0  
0.61441326 0.79211885 0  
0.5533345 0.9442417 0  
0.86748934 0.5476702 0  
0.45131102 0.7447211 0  
0.9522712 0.6298776 0  
0.49115333 0.6454875 0  
0.57800794 0.87019897 0  
0.14164469 0.70855445 0  
0.38005453 0.7027296 0  
0.27368295 0.69533986 0  
0.049783085 0.62717026 0  
0.049414515 0.87215096 0  
0.62649876 0.043947894 0  
0.8786532 0.85014766 0  
0.34885973 0.6374005 0  
0.5949198 0.5178657 0  
0.86131465 0.63502216 0  
0.79260343 0.80256337 0  
0.7014114 0.5166631 0  
0.40068594 0.814811 0  
0.55082065 0.3157755 0  
0.6816506 0.59935296 0  
0.3207115 0.869895 0  
0.05274013 0.55274016 0  
0.05274013 0.94725984 0  
0.6400825 0.29462123 0  
0.70826656 0.24477807 0  
0.7619463 0.22610597 0  
0.052983053 0.7814943 0  
0.7439376 0.3234126 0  
0.95078784 0.88415176 0  
0.9592077 0.22841401 0  
0.84777594 0.1277937 0  
0.9565159 0.32835326 0  
0.87450755 0.38491434 0  
0.8723333 0.26038516 0  
0.2202579 0.9566307 0  
0.5511588 0.44135624 0  
0.89094824 0.71469563 0  
0.14088513 0.8952839 0  
0.9426072 0.110777475 0  
0.5598569 0.76635987 0  
0.7797588 0.58802515 0  
0.73662144 0.7500704 0  
0.80291736 0.6806566 0  
0.3250526 0.545103 0  
0.47699997 0.87967384 0  
0.109880045 0.6315259 0  
0.9565706 0.4731244 0  
0.9520049 0.7877815 0  
0.41847795 0.61317724 0  
0.7469016 0.43319932 0  
0.6651573 0.8785795 0  
0.6980314 0.36945662 0  
0.22855084 0.7651636 0  
0.5426688 0.22467211 0  
0.85128033 0.20839585 0  
0.6080812 0.24411796 0  
0.22691919 0.54427826 0  
0.42439926 0.70143026 0  
0.87087065 0.7973803 0  
0.71672744 0.95107883 0  
0.83949435 0.5922577 0  
0.34957552 0.8123493 0  
0.51278394 0.6086165 0  
0.15431206 0.6098422 0  
0.6343587 0.9556687 0  
0.8392547 0.8737899 0  
0.7109742 0.042080052 0  
0.23100297 0.62427217 0  
0.5484106 0.51544434 0  
0.42224586 0.8707757 0  
0.10496536 0.8650706 0  
0.11225842 0.7941315 0  
0.429402 0.95576584 0  
0.46295157 0.54450357 0  
0.10164671 0.5457688 0  
0.5822864 0.63314605 0  
0.37762833 0.53745234 0  
0.8275239 0.04005421 0  
0.8323437 0.41491747 0  
0.44464156 0.7891728 0  
0.90912354 0.4597161 0  
0.26412204 0.8401569 0  
0.26712763 0.7957094 0  
0.62024623 0.47111306 0  
0.7770051 0.8863074 0  
0.8221126 0.9602037 0  
0.5225849 0.68752897 0  
0.76535124 0.17708147 0  
0.31416538 0.59776855 0  
0.53816175 0.1840494 0  
0.6130816 0.16364412 0  
0.7091263 0.2886451 0  
0.22773811 0.71831167 0  
0.9012153 0.33257928 0  
0.18447237 0.53813106 0  
0.18472914 0.6879896 0  
0.82954866 0.46472684 0  
0.17961553 0.9633957 0  
0.36685705 0.9008585 0  
0.44457012 0.65111244 0  
0.8385268 0.7209097 0  
0.7115207 0.14475605 0  
0.09503517 0.95690435 0  
0.7880896 0.39571288 0  
0.96492094 0.38520482 0  
0.5563232 0.6018296 0  
0.31393582 0.73382735 0  
0.49519077 0.7332941 0  
0.9629974 0.5187325 0  
0.5415193 0.100338124 0  
0.9036664 0.6412981 0  
0.3244769 0.96671104 0  
0.2306904 0.9144942 0  
0.035453074 0.6754281 0  
0.035497267 0.82603335 0  
0.18655832 0.81865835 0  
0.54264426 0.042344484 0  
0.70526683 0.56849337 0  
0.5891552 0.9625355 0  
0.09987184 0.7080552 0  
0.6646015 0.4450029 0  
0.62016 0.87781084 0  
0.68724763 0.7468739 0  
0.6794575 0.21179324 0  
0.66522187 0.8161647 0  
0.5348051 0.47726545 0  
0.77173877 0.09966874 0  
0.30060795 0.6489708 0  
0.5900102 0.4408019 0  
0.6355171 0.20569986 0  
0.19041659 0.6358006 0  
0.7817328 0.35663295 0  
0.85770756 0.080021024 0  
0.90471005 0.95934963 0  
0.53831446 0.36966592 0  
0.24070142 0.5850949 0  
0.63882816 0.744377 0  
0.6058876 0.3669202 0  
0.9048971 0.4124307 0  
0.5905425 0.11210937 0  
0.6993429 0.7882209 0  
0.5656613 0.9052634 0  
0.7704826 0.63249016 0  
0.8522724 0.33958897 0  
0.296919 0.9075354 0  
0.9667555 0.83175755 0  
0.5987462 0.28922248 0  
0.11813834 0.6749375 0  
0.38161784 0.6131642 0  
0.6618531 0.40398476 0  
0.6370484 0.08659111 0  
0.038074076 0.5894313 0  
0.038074076 0.9105687 0  
0.96839094 0.6753669 0  
0.14384495 0.75045496 0  
0.5411818 0.84978336 0  
0.52673554 0.8019128 0  
0.7657028 0.46494102 0  
0.961649 0.03835645 0  
0.675 0.030283678 0  
0.7518289 0.70853835 0  
0.96001375 0.18740793 0  
0.9678583 0.27471802 0  
0.67516285 0.9681792 0  
0.59831095 0.83401567 0  
0.9073243 0.5525552 0  
0.8611736 0.90393615 0  
0.5795172 0.033180732 0  
0.5208923 0.96885955 0  
0.47072348 0.967185 0  
0.6462471 0.6071309 0  
0.52937275 0.275 0  
0.26006237 0.6504962 0  
0.73740774 0.8595233 0  
0.8331797 0.2957258 0  
0.47728643 0.80960673 0  
0.9208824 0.037562877 0  
0.9040851 0.18120942 0  
0.70257896 0.8997159 0  
0.97050655 0.074435726 0  
0.36017016 0.7398202 0  
0.7106061 0.0794504 0  
0.63714504 0.33196637 0  
0.890113 0.67338765 0  
0.17423429 0.88494647 0  
0.70125586 0.4576201 0  
0.9066001 0.8085411 0  
0.71885514 0.6719225 0  
0.36035147 0.9661565 0  
0.42251006 0.5290217 0  
0.9723008 0.4259288 0  
0.64294964 0.51980066 0  
0.78817964 0.03501066 0  
0.570402 0.7144006 0  
0.12055232 0.8290842 0  
0.19649777 0.7861254 0  
0.67484623 0.27905807 0  
0.36568695 0.6714864 0  
0.97151566 0.9645467 0  
0.8305832 0.16528471 0  
0.7877058 0.2744767 0  
0.4071035 0.9074601 0  
0.8660333 0.7541822 0  
0.75281197 0.5088334 0  
0.80377316 0.22890417 0  
0.7842619 0.53388166 0  
0.80658257 0.8577738 0  
0.8967399 0.28827333 0  
0.82637364 0.5137572 0  
0.9234294 0.25649244 0  
0.30519488 0.78316474 0  
0.8318979 0.6562427 0  
0.121106885 0.5892234 0  
0.97378284 0.925 0  
0.903588 0.07469306 0  
0.5322612 0.41135144 0  
0.63939583 0.91243213 0  
0.6109627 0.7054028 0  
0.57147133 0.35136378 0  
0.6785297 0.6806924 0  
0.90144104 0.14535177 0  
0.7748313 0.76722825 0  
0.7498974 0.14247963 0  
0.61986715 0.56109023 0  
0.36870277 0.77900666 0  
0.9640754 0.59000534 0  
0.9105131 0.86591715 0  
0.027604798 0.5276048 0  
0.027604798 0.9723952 0  
0.5214134 0.7612175 0  
CELLS 792 3168 
3 407 234 112 
3 413 222 86 
3 183 234 407 
3 108 278 233 
3 97 158 344 
3 124 207 169 
[...]
POINT_DATA 437 
SCALARS T float 
LOOKUP_TABLE default 
0.5000000000012443 
0.5000000000017061 
7.250748832221736e-30 
-8.79645782709485e-38 
-1.6681169784222334e-33 
-9.642400276750716e-23 
0.9999999999996739 
1.000000000000171 
1.0000000000002063 
1.0000000000001645 
1.0000000000005882 
1.0000000000000284 
1.0000000000000928 
1.0000000000001392 
0.9999999999996679 
4.165919815630371e-12 
1.4642355976099583e-12 
3.184099826017034e-14 
-5.466460529571073e-15 
-6.110273650319837e-15 
-2.1375340458232847e-16 
-1.725352666773221e-17 
4.862692411774276e-19 
7.09412956550237e-21 
2.0077824328202666e-21 
-5.379154204909048e-22 
2.11173825799085e-23 
4.5138827581017576e-24 
-1.6958287731626813e-25 
4.230484875478642e-26 
-7.153042335885339e-27 
-2.016795698495663e-30 
-1.1309707323861232e-28 
2.0664601618419388e-29 
-2.9894340771520555e-29 
1.1884225176499489e-29 
1.0315410459211606e-28 
8.632933561216422e-30 
-1.3380617338288822e-28 
-3.364992808703688e-29 
-7.557309597830258e-30 
-2.448105659289671e-30 
1.5367757699150394e-30 
4.721576381366736e-32 
-1.8395604612111215e-30 
-3.0100078802470714e-32 
-2.89925318695785e-33 
9.252483055856539e-33 
6.491190276619759e-33 
3.6085304843430345e-33 
8.529642935492933e-34 
-2.9599221493503646e-35 
-3.565420441340048e-35 
-1.7367581817391833e-35 
5.063422388975412e-35 
1.270870551759586e-34 
-2.051558905025272e-33 
-6.132090966633529e-33 
-3.372557861500446e-33 
-6.5269850670427895e-34 
-6.64872297663661e-33 
2.201321613736013e-32 
-4.554190929490483e-31 
-4.78598520457304e-31 
-3.8974322077402595e-31 
-2.9128959480481788e-28 
6.1958406942766885e-27 
-4.9058107427969387e-26 
2.1205135461632597e-25 
-3.2876915000329237e-25 
1.4092882841216514e-24 
2.2028853451642637e-20 
1.5718411322466409e-18 
-2.157066906978216e-17 
8.059860432593743e-17 
4.769400554945667e-16 
-6.086298725775479e-15 
4.441450776833027e-14 
2.173982901180094e-13 
3.5802942464913534e-12 
1.429382736642185e-13 
-4.706450783900582e-7 
-2.6087233165286973e-18 
-9.376634991598333e-16 
0.0069802834481279535 
4.092359687452781e-11 
-1.4575942513975453e-15 
9.29526742231555e-12 
-0.00012698228974120936 
-9.989417873833511e-15 
7.309687580000238e-18 
1.0766732117389383e-19 
4.867620331102866e-22 
1.9745675376348894e-18 
-8.189813185375196e-14 
3.431178847249502e-13 
-1.270919252095548e-6 
4.5595225921293234e-8 
1.5145295256714447e-8 
0.06967960237290151 
4.3069417402589665e-17 
1.8218358608941583e-20 
5.662320856909931e-19 
0.3429715470258261 
-2.7292032833081494e-16 
0.24037485029504543 
1.9089569709208475e-17 
3.920756055266033e-9 
-3.293399698690227e-21 
-2.0737682074955104e-6 
9.83310144330952e-17 
-3.551709370522237e-17 
-7.998082750288108e-5 
2.8243941394508487e-12 
-3.1247523847493274e-12 
0.00586627890881413 
-2.1797679200556024e-15 
1.2093541783829009e-15 
6.967151015622971e-13 
4.394790735138917e-13 
-7.478617082372469e-21 
-8.960947643495287e-24 
1.9887729827715456e-19 
-2.1713863096162598e-11 
-6.644108722652665e-11 
-4.634429349635352e-20 
-0.0017202491350247462 
-9.586562945159943e-15 
-1.3599435361284749e-14 
2.2098104440170918e-17 
-2.8375016945726815e-18 
0.0013010598744503802 
1.4640050704073606e-6 
0.5106970160380795 
-2.5518609381369417e-7 
-1.080125288544449e-13 
8.707632882694455e-22 
-1.9096401318591376e-18 
9.051513286522305e-22 
5.603906040837991e-23 
-2.7352317540981534e-16 
6.566294642757991e-20 
3.638469928550542e-20 
-1.3265214751577456e-16 
1.572314275256396e-8 
-7.015864988938638e-10 
1.0491444512989592e-20 
-2.218771671517639e-13 
-9.147656537752205e-16 
2.5715155914223536e-17 
0.44555448156337457 
4.2210931724853836e-14 
4.271628090138794e-8 
5.065685545902603e-19 
0.5363721759121165 
-1.8652319984366665e-18 
0.0001196137900537905 
-1.6245742348018586e-16 
1.0121841313464452e-7 
4.035251811296905e-5 
-0.0001687410046005904 
-7.808787578577767e-8 
1.692680586915686e-10 
4.7483298839883415e-15 
0.10018932433869591 
0.728556169075779 
9.420145862215635e-11 
0.005090371259160428 
1.8227492315707538e-14 
-1.694036831293201e-10 
1.1888108573905627e-8 
-6.129198463243363e-16 
1.270539417902696e-13 
0.01507846614792857 
4.0622289143697867e-16 
-9.225843259815584e-18 
-7.473847471851875e-15 
0.04163594142577436 
5.429327365819286e-21 
1.0414111911666799e-19 
5.551722329666287e-19 
-9.628938825112003e-21 
-2.5912731395643992e-21 
4.411186229153461e-6 
-9.93575997215331e-10 
0.10756841634321185 
0.9071558805578034 
-1.6289801468893174e-7 
6.149397562236264e-18 
-4.675693777823073e-18 
-5.222937511357918e-14 
-1.2935070039319104e-13 
-2.8621724893933707e-16 
-4.136784142544292e-12 
0.6754942648935193 
-8.611003033884756e-18 
-2.6334732914978196e-12 
2.697941899243574e-22 
-5.619347922897734e-23 
-4.454188430317453e-15 
8.699151112214613e-12 
-5.504988334399921e-18 
0.1504424387909352 
-1.0162753816657565e-20 
-1.2605658933430212e-11 
9.376433647784984e-17 
-1.5325305673170118e-19 
-2.7881692090489296e-11 
2.4585497504585973e-15 
-3.608722014550462e-13 
3.053829174713251e-14 
1.6645056490391555e-17 
3.698177762014038e-20 
1.4143274983061526e-15 
4.295090194115185e-17 
7.338145427677868e-22 
-1.0046811606647458e-23 
0.7627678570252031 
4.1569428850506527e-16 
3.762694205500503e-15 
2.5503358291976323e-10 
1.0494133873959614e-13 
7.974379868632449e-16 
-1.138412446598601e-9 
-3.647459059583554e-18 
-9.67523235420379e-7 
1.658036126959955e-11 
-3.3899677041763343e-19 
-3.7949435491553114e-21 
7.77227268122938e-25 
2.2613260521714995e-5 
-0.00042406624208684256 
-0.0007501870851920018 
3.4576007127148195e-22 
1.2728244962978962e-5 
2.3684564455799905e-17 
0.003164891444654675 
0.1899366859406561 
2.8936020820998934e-6 
-1.5967698800196736e-7 
-3.068142171105149e-5 
-3.5310194492283785e-22 
-5.51262110964385e-9 
1.508497569530791e-14 
-6.275161723550334e-23 
0.31574612384369694 
-8.725990985965481e-17 
-2.7280207599902265e-12 
-1.7953663361251817e-14 
3.147519608859419e-13 
4.305907620346145e-15 
-3.555136493992951e-18 
-6.48343070365894e-21 
-3.026879818481862e-10 
6.555833506768872e-16 
6.461935313140281e-14 
-9.542777065346759e-9 
-4.191773367288496e-18 
-7.826500580390656e-7 
-2.240526974800376e-19 
-0.0002518409789904211 
0.003321893016422944 
-1.7653203371947777e-5 
5.32930671478431e-17 
-2.5703263525468903e-15 
-3.698328498475763e-15 
6.379353758469642e-18 
-7.13999372842117e-13 
2.2566568752159628e-18 
4.947303517802684e-13 
5.932052644634014e-20 
1.0355226870164521e-18 
1.2499536976365185e-16 
0.8327779266373654 
-1.495567855138832e-18 
2.402048429177264e-10 
3.343073754584461e-19 
1.1576754628143087e-22 
-7.564103213668533e-22 
1.5552095946891337e-19 
7.587105386522411e-13 
1.6154341412238644e-20 
5.292964966109501e-13 
-1.3972236485861761e-14 
0.9041526362975679 
-1.7986154014861057e-8 
-2.470096803563207e-16 
-7.234383204965748e-10 
2.96347678157102e-20 
-1.3742871668591525e-20 
-3.843730822158075e-9 
2.890963255156269e-17 
-2.1899242005422453e-18 
-3.2777318968520155e-14 
0.014366522060232405 
9.318971156300491e-16 
-0.000797398581741211 
0.004909549918073328 
1.1856374802430287e-7 
-8.50646977541519e-19 
2.678350007018089e-6 
-2.0650604262039235e-18 
-2.255473991771217e-19 
-3.584178755846673e-10 
-5.899127619451692e-23 
-1.0481992208991705e-19 
3.0412850685867e-15 
-3.3695425588808987e-14 
0.04976597473211894 
3.95774542760075e-24 
-1.0470832407286026e-7 
-1.1825924938819471e-7 
-3.179732600571858e-13 
8.42030919981174e-18 
6.17014460939308e-15 
3.031016882439144e-11 
0.13775307247871227 
-1.8234701381363636e-13 
-4.494970301399358e-22 
2.440822699352267e-21 
-4.025407968741661e-23 
-3.8264088712957277e-23 
-1.0918603869032545e-20 
0.6517033803482375 
3.1487050130469055e-11 
1.9362565621733064e-19 
-1.640666037421389e-21 
9.9696296716418e-9 
1.0003372901487156e-17 
1.2634200372193515e-14 
-0.001130908309383139 
-4.520801198382849e-17 
-1.0100322834275011e-9 
0.33214107538016396 
-3.5885592289696824e-16 
-8.332573615141259e-9 
-0.0008808281152487753 
-2.7567809214223874e-20 
-2.5631027994745294e-7 
0.5787697917930031 
2.669574569194321e-18 
-3.0452502594041854e-7 
3.3052793459822925e-17 
8.623685859070442e-15 
-2.344099839631485e-7 
-1.0037396089311233e-8 
0.10643165643431007 
-2.6957893791510193e-15 
-1.1841641291777274e-18 
-1.8695331225765343e-12 
-2.552776636919359e-7 
6.049971099944311e-21 
-3.9534550356610186e-17 
1.92143265559062e-5 
-1.623148204446089e-20 
-2.0654604689410634e-14 
-2.4785295979229215e-8 
0.327501283114813 
1.337972848718792e-21 
2.1893604842834968e-24 
3.692101900596964e-14 
6.08099375374229e-21 
5.704529217743438e-18 
8.459406367863699e-17 
5.575047043792108e-9 
0.8536751567566163 
0.8976340419231509 
4.0638808705648e-13 
0.021337804715097917 
0.0001999818780797313 
4.2772157627703924e-19 
-4.49662440616429e-17 
4.540173692444993e-11 
-2.035831463370982e-17 
0.8319431037520401 
-5.0722802978817775e-20 
-7.896763722075828e-20 
3.582548195072009e-12 
2.1927187895315164e-5 
-6.381616018479286e-18 
-1.1298575352633219e-16 
-1.6953708311765372e-5 
7.01472770639676e-17 
0.9347518375803214 
0.03511103907987073 
-6.739453093664394e-17 
0.4691356316158494 
7.216955523206512e-18 
0.4776987792911405 
-8.976508150275059e-7 
-4.551479845764019e-14 
2.4018139987717043e-22 
1.6313902007205496e-8 
7.212049153883965e-16 
-1.1768074878827149e-12 
-1.8260309628091002e-21 
2.029784963245648e-14 
-3.235265254250023e-9 
2.013622776018319e-10 
0.9201274448374034 
8.103719442885368e-15 
-1.0212597205010695e-21 
7.293601660921457e-20 
9.930631723608401e-6 
-5.232266013624963e-16 
-1.5699411954025434e-18 
0.039614536313828934 
-8.194543135014739e-5 
-7.82749197101119e-19 
2.007244309852703e-15 
-3.6413359083828746e-10 
-0.00016138023752686274 
-2.6725208579066425e-11 
-1.812178776394655e-16 
6.617360414051701e-5 
-9.059671746733846e-11 
0.0008861083668984719 
-1.8209720061697439e-19 
5.3178219968577164e-14 
5.702413854927826e-20 
-3.122655630204654e-18 
0.6828908506549269 
4.5201821648396815e-8 
-7.718509180035788e-18 
-6.75419436199458e-14 
-6.517384843656435e-7 
-5.5554091960289356e-14 
0.12525757083151987 
3.553554385728289e-17 
0.07165156599358642 
1.1913294612979088e-11 
-3.6538664393558413e-17 
-3.947255128897486e-12 
-7.58192671927493e-17 
4.867964411598547e-22 
-6.273446991345703e-26 
-8.088445044950848e-16 
