# vtk DataFile Version 3.0 
Unstructured Grid 
ASCII 
DATASET UNSTRUCTURED_GRID
POINTS 437 float 
0.5 0 0  
1 0 0  
1 1 0  
0 1 0  
0 0.5 0  
0.5 0.5 0  
0.55 0 0  
0.6 0 0  
0.65 0 0  
0.7 0 0  
0.75 0 0  
0.8 0 0  
0.85 0 0  
0.9 0 0  
0.95 0 0  
1 0.05 0  
1 0.1 0  
1 0.15 0  
1 0.2 0  
1 0.25 0  
1 0.3 0  
1 0.35 0  
1 0.4 0  
1 0.45 0  
1 0.5 0  
1 0.55 0  
1 0.6 0  
1 0.65 0  
1 0.7 0  
1 0.75 0  
1 0.8 0  
1 0.85 0  
1 0.9 0  
1 0.95 0  
0.95 1 0  
0.9 1 0  
0.85 1 0  
0.8 1 0  
0.75 1 0  
0.7 1 0  
0.65 1 0  
0.6 1 0  
0.55 1 0  
0.5 1 0  
0.45 1 0  
0.4 1 0  
0.35 1 0  
0.3 1 0  
0.25 1 0  
0.2 1 0  
0.15 1 0  
0.1 1 0  
0.05 1 0  
0 0.95 0  
0 0.9 0  
0 0.85 0  
0 0.8 0  
0 0.75 0  
0 0.7 0  
0 0.65 0  
0 0.6 0  
0 0.55 0  
0.05 0.5 0  
0.1 0.5 0  
0.15 0.5 0  
0.2 0.5 0  
0.25 0.5 0  
0.3 0.5 0  
0.35 0.5 0  
0.4 0.5 0  
0.45 0.5 0  
0.5 0.45 0  
0.5 0.4 0  
0.5 0.35 0  
0.5 0.3 0  
0.5 0.25 0  
0.5 0.2 0  
0.5 0.15 0  
0.5 0.1 0  
0.5 0.05 0  
0.7067263 0.70899034 0  
0.7462131 0.3784907 0  
0.275 0.75 0  
0.49203128 0.7759238 0  
0.8004979 0.19051445 0  
0.8169689 0.5569046 0  
0.8379451 0.8232311 0  
0.6651841 0.5643974 0  
0.6586247 0.24525054 0  
0.39886913 0.6556846 0  
0.6357807 0.845222 0  
0.15416667 0.65416664 0  
0.15469871 0.8490102 0  
0.37710553 0.86057764 0  
0.8530772 0.68242943 0  
0.5399757 0.6405682 0  
0.87012184 0.30832314 0  
0.6218386 0.41301885 0  
0.8712292 0.43948308 0  
0.6270563 0.12650847 0  
0.2721758 0.6146517 0  
0.26237586 0.88543755 0  
0.5290535 0.8872315 0  
0.8881946 0.111421056 0  
0.59896 0.74404466 0  
0.73382306 0.10964348 0  
0.7398329 0.9080902 0  
0.7300285 0.48150903 0  
0.10457365 0.74805343 0  
0.5998279 0.32869247 0  
0.4013559 0.7541197 0  
0.8998196 0.8998196 0  
0.7425495 0.27230954 0  
0.90489763 0.5939467 0  
0.7320272 0.6158908 0  
0.90734863 0.2194375 0  
0.90656686 0.7697009 0  
0.74241894 0.80003285 0  
0.632743 0.65343165 0  
0.46277094 0.5961966 0  
0.08243797 0.5905297 0  
0.08731128 0.91282296 0  
0.44904137 0.91765434 0  
0.57323986 0.55955005 0  
0.91513485 0.5138866 0  
0.1836753 0.7418762 0  
0.5856236 0.20050126 0  
0.35569865 0.5818674 0  
0.4717501 0.69469833 0  
0.8203882 0.9111774 0  
0.19848472 0.58481354 0  
0.7232736 0.19122238 0  
0.6770922 0.32269323 0  
0.80834067 0.08196056 0  
0.9230353 0.37846187 0  
0.78589296 0.72803205 0  
0.18855475 0.91950625 0  
0.6022492 0.9193816 0  
0.07701049 0.6750049 0  
0.07779311 0.8285882 0  
0.33496442 0.69013095 0  
0.22651649 0.8130275 0  
0.33345127 0.9266774 0  
0.56306595 0.81706417 0  
0.79485846 0.43853834 0  
0.57445616 0.4795266 0  
0.30524647 0.8211264 0  
0.8098617 0.6293174 0  
0.66652167 0.7748195 0  
0.44695833 0.83554715 0  
0.58482915 0.07054804 0  
0.92909133 0.6757825 0  
0.82267326 0.3699049 0  
0.6750539 0.9307201 0  
0.6726681 0.069687515 0  
0.22284219 0.6692463 0  
0.9308683 0.2891792 0  
0.930985 0.8368545 0  
0.57183284 0.395735 0  
0.56719327 0.267426 0  
0.8295321 0.2563277 0  
0.702163 0.41558313 0  
0.6631986 0.48596716 0  
0.5332523 0.7285968 0  
0.9389338 0.15767792 0  
0.9392354 0.06812419 0  
0.74606097 0.5461627 0  
0.668234 0.16889203 0  
0.82325417 0.7682245 0  
0.86888987 0.49205798 0  
0.9373707 0.42941386 0  
0.27492446 0.5574591 0  
0.7591465 0.66997904 0  
0.5625162 0.14507365 0  
0.698026 0.84136397 0  
0.33979788 0.7690552 0  
0.4100188 0.5701878 0  
0.86549294 0.1689855 0  
0.15718786 0.7919015 0  
0.14695793 0.56156343 0  
0.49887148 0.9348564 0  
0.39005366 0.9400572 0  
0.2756479 0.94468254 0  
0.79987353 0.31934652 0  
0.79108334 0.48730215 0  
0.7893297 0.13692713 0  
0.8729007 0.040251754 0  
0.65027624 0.3686311 0  
0.94156647 0.94156647 0  
0.77622527 0.94636667 0  
0.6486954 0.7048788 0  
0.5761476 0.67128414 0  
0.77190053 0.83744544 0  
0.60624254 0.5986166 0  
0.7550012 0.06245598 0  
0.50134873 0.8411101 0  
0.68467325 0.64302444 0  
0.053087775 0.72582155 0  
0.139265 0.9408418 0  
0.95088 0.7243738 0  
0.9432815 0.5566516 0  
0.86394966 0.9434744 0  
0.6805639 0.11338498 0  
0.20661557 0.866214 0  
0.5136965 0.55900043 0  
0.61441326 0.79211885 0  
0.5533345 0.9442417 0  
0.86748934 0.5476702 0  
0.45131102 0.7447211 0  
0.9522712 0.6298776 0  
0.49115333 0.6454875 0  
0.57800794 0.87019897 0  
0.14164469 0.70855445 0  
0.38005453 0.7027296 0  
0.27368295 0.69533986 0  
0.049783085 0.62717026 0  
0.049414515 0.87215096 0  
0.62649876 0.043947894 0  
0.8786532 0.85014766 0  
0.34885973 0.6374005 0  
0.5949198 0.5178657 0  
0.86131465 0.63502216 0  
0.79260343 0.80256337 0  
0.7014114 0.5166631 0  
0.40068594 0.814811 0  
0.55082065 0.3157755 0  
0.6816506 0.59935296 0  
0.3207115 0.869895 0  
0.05274013 0.55274016 0  
0.05274013 0.94725984 0  
0.6400825 0.29462123 0  
0.70826656 0.24477807 0  
0.7619463 0.22610597 0  
0.052983053 0.7814943 0  
0.7439376 0.3234126 0  
0.95078784 0.88415176 0  
0.9592077 0.22841401 0  
0.84777594 0.1277937 0  
0.9565159 0.32835326 0  
0.87450755 0.38491434 0  
0.8723333 0.26038516 0  
0.2202579 0.9566307 0  
0.5511588 0.44135624 0  
0.89094824 0.71469563 0  
0.14088513 0.8952839 0  
0.9426072 0.110777475 0  
0.5598569 0.76635987 0  
0.7797588 0.58802515 0  
0.73662144 0.7500704 0  
0.80291736 0.6806566 0  
0.3250526 0.545103 0  
0.47699997 0.87967384 0  
0.109880045 0.6315259 0  
0.9565706 0.4731244 0  
0.9520049 0.7877815 0  
0.41847795 0.61317724 0  
0.7469016 0.43319932 0  
0.6651573 0.8785795 0  
0.6980314 0.36945662 0  
0.22855084 0.7651636 0  
0.5426688 0.22467211 0  
0.85128033 0.20839585 0  
0.6080812 0.24411796 0  
0.22691919 0.54427826 0  
0.42439926 0.70143026 0  
0.87087065 0.7973803 0  
0.71672744 0.95107883 0  
0.83949435 0.5922577 0  
0.34957552 0.8123493 0  
0.51278394 0.6086165 0  
0.15431206 0.6098422 0  
0.6343587 0.9556687 0  
0.8392547 0.8737899 0  
0.7109742 0.042080052 0  
0.23100297 0.62427217 0  
0.5484106 0.51544434 0  
0.42224586 0.8707757 0  
0.10496536 0.8650706 0  
0.11225842 0.7941315 0  
0.429402 0.95576584 0  
0.46295157 0.54450357 0  
0.10164671 0.5457688 0  
0.5822864 0.63314605 0  
0.37762833 0.53745234 0  
0.8275239 0.04005421 0  
0.8323437 0.41491747 0  
0.44464156 0.7891728 0  
0.90912354 0.4597161 0  
0.26412204 0.8401569 0  
0.26712763 0.7957094 0  
0.62024623 0.47111306 0  
0.7770051 0.8863074 0  
0.8221126 0.9602037 0  
0.5225849 0.68752897 0  
0.76535124 0.17708147 0  
0.31416538 0.59776855 0  
0.53816175 0.1840494 0  
0.6130816 0.16364412 0  
0.7091263 0.2886451 0  
0.22773811 0.71831167 0  
0.9012153 0.33257928 0  
0.18447237 0.53813106 0  
0.18472914 0.6879896 0  
0.82954866 0.46472684 0  
0.17961553 0.9633957 0  
0.36685705 0.9008585 0  
0.44457012 0.65111244 0  
0.8385268 0.7209097 0  
0.7115207 0.14475605 0  
0.09503517 0.95690435 0  
0.7880896 0.39571288 0  
0.96492094 0.38520482 0  
0.5563232 0.6018296 0  
0.31393582 0.73382735 0  
0.49519077 0.7332941 0  
0.9629974 0.5187325 0  
0.5415193 0.100338124 0  
0.9036664 0.6412981 0  
0.3244769 0.96671104 0  
0.2306904 0.9144942 0  
0.035453074 0.6754281 0  
0.035497267 0.82603335 0  
0.18655832 0.81865835 0  
0.54264426 0.042344484 0  
0.70526683 0.56849337 0  
0.5891552 0.9625355 0  
0.09987184 0.7080552 0  
0.6646015 0.4450029 0  
0.62016 0.87781084 0  
0.68724763 0.7468739 0  
0.6794575 0.21179324 0  
0.66522187 0.8161647 0  
0.5348051 0.47726545 0  
0.77173877 0.09966874 0  
0.30060795 0.6489708 0  
0.5900102 0.4408019 0  
0.6355171 0.20569986 0  
0.19041659 0.6358006 0  
0.7817328 0.35663295 0  
0.85770756 0.080021024 0  
0.90471005 0.95934963 0  
0.53831446 0.36966592 0  
0.24070142 0.5850949 0  
0.63882816 0.744377 0  
0.6058876 0.3669202 0  
0.9048971 0.4124307 0  
0.5905425 0.11210937 0  
0.6993429 0.7882209 0  
0.5656613 0.9052634 0  
0.7704826 0.63249016 0  
0.8522724 0.33958897 0  
0.296919 0.9075354 0  
0.9667555 0.83175755 0  
0.5987462 0.28922248 0  
0.11813834 0.6749375 0  
0.38161784 0.6131642 0  
0.6618531 0.40398476 0  
0.6370484 0.08659111 0  
0.038074076 0.5894313 0  
0.038074076 0.9105687 0  
0.96839094 0.6753669 0  
0.14384495 0.75045496 0  
0.5411818 0.84978336 0  
0.52673554 0.8019128 0  
0.7657028 0.46494102 0  
0.961649 0.03835645 0  
0.675 0.030283678 0  
0.7518289 0.70853835 0  
0.96001375 0.18740793 0  
0.9678583 0.27471802 0  
0.67516285 0.9681792 0  
0.59831095 0.83401567 0  
0.9073243 0.5525552 0  
0.8611736 0.90393615 0  
0.5795172 0.033180732 0  
0.5208923 0.96885955 0  
0.47072348 0.967185 0  
0.6462471 0.6071309 0  
0.52937275 0.275 0  
0.26006237 0.6504962 0  
0.73740774 0.8595233 0  
0.8331797 0.2957258 0  
0.47728643 0.80960673 0  
0.9208824 0.037562877 0  
0.9040851 0.18120942 0  
0.70257896 0.8997159 0  
0.97050655 0.074435726 0  
0.36017016 0.7398202 0  
0.7106061 0.0794504 0  
0.63714504 0.33196637 0  
0.890113 0.67338765 0  
0.17423429 0.88494647 0  
0.70125586 0.4576201 0  
0.9066001 0.8085411 0  
0.71885514 0.6719225 0  
0.36035147 0.9661565 0  
0.42251006 0.5290217 0  
0.9723008 0.4259288 0  
0.64294964 0.51980066 0  
0.78817964 0.03501066 0  
0.570402 0.7144006 0  
0.12055232 0.8290842 0  
0.19649777 0.7861254 0  
0.67484623 0.27905807 0  
0.36568695 0.6714864 0  
0.97151566 0.9645467 0  
0.8305832 0.16528471 0  
0.7877058 0.2744767 0  
0.4071035 0.9074601 0  
0.8660333 0.7541822 0  
0.75281197 0.5088334 0  
0.80377316 0.22890417 0  
0.7842619 0.53388166 0  
0.80658257 0.8577738 0  
0.8967399 0.28827333 0  
0.82637364 0.5137572 0  
0.9234294 0.25649244 0  
0.30519488 0.78316474 0  
0.8318979 0.6562427 0  
0.121106885 0.5892234 0  
0.97378284 0.925 0  
0.903588 0.07469306 0  
0.5322612 0.41135144 0  
0.63939583 0.91243213 0  
0.6109627 0.7054028 0  
0.57147133 0.35136378 0  
0.6785297 0.6806924 0  
0.90144104 0.14535177 0  
0.7748313 0.76722825 0  
0.7498974 0.14247963 0  
0.61986715 0.56109023 0  
0.36870277 0.77900666 0  
0.9640754 0.59000534 0  
0.9105131 0.86591715 0  
0.027604798 0.5276048 0  
0.027604798 0.9723952 0  
0.5214134 0.7612175 0  
CELLS 792 3168 
3 407 234 112 
3 413 222 86 
3 183 234 407 
3 108 278 233 
3 97 158 344 
3 124 207 169 
[...]
POINT_DATA 437 
SCALARS T float 
LOOKUP_TABLE default 
0.5000000000012889 
0.5000000000016751 
2.8635797274717365e-22 
-7.018295705549269e-28 
-2.6717212916615316e-26 
2.8402469110354647e-13 
0.9999999999996487 
1.0000000000000078 
1.0000000000000024 
0.9999999999999984 
0.9999999999999915 
0.9999999999999929 
1.0000000000000153 
1.0000000000000302 
0.999999999999531 
4.592461401953328e-12 
2.3095465506970358e-12 
9.844150153105496e-13 
7.075064730561793e-13 
3.6316835361345097e-13 
1.2587290825696762e-13 
5.949522709490457e-14 
3.010649415196458e-14 
-8.314436997412376e-15 
-1.8126066131066686e-15 
-1.3551219221828125e-14 
-7.68322110663672e-18 
-3.540599752018233e-16 
2.3425886748290126e-17 
2.1667568343695452e-17 
5.073936166814782e-18 
2.409829368175237e-19 
5.0399485262568377e-20 
-2.1976449068474996e-22 
1.283281906080258e-21 
-5.369222463518859e-21 
2.026245479553176e-20 
1.3761485115240001e-19 
-1.8483720195836084e-19 
-1.1548286515645538e-19 
-6.096460938519049e-20 
-5.645165642561238e-20 
-9.929425817405107e-20 
1.7832923678831964e-20 
3.6422728263374405e-21 
5.027596988818796e-22 
1.6485167855558856e-23 
-5.9664638633178355e-24 
3.2405130196323975e-24 
7.503582796795943e-25 
6.707617326151015e-25 
-1.1594711262836768e-26 
-1.1139669775903478e-26 
-1.6926585858793792e-28 
3.4868701761126486e-26 
5.917476025824278e-26 
4.615981369580478e-25 
1.0766526222411267e-24 
5.33529630515961e-25 
1.625176266231619e-24 
1.930573346780273e-24 
1.3502300893880444e-25 
1.5856060854946552e-23 
1.8159791779105466e-23 
-6.640806739178616e-23 
-7.947072870032398e-21 
-1.479995565069684e-19 
-2.8617014043166897e-19 
-7.666465262020127e-19 
-1.60705670338695e-17 
-7.102286608462394e-16 
7.5108677439997e-13 
1.3165666268481648e-12 
2.219615488630337e-12 
3.3711059662369886e-12 
3.6250716286731433e-12 
3.670240932538334e-12 
4.040574973603886e-12 
3.0674235352418267e-12 
4.586266450984025e-12 
0.001799166774732034 
0.6130785966675134 
-4.4188497674488835e-9 
5.484849564487633e-6 
0.9976448704872672 
0.06956330664618907 
-1.2227262463905145e-6 
0.037021203489668905 
0.8981398603719278 
8.986084001814544e-6 
8.35949263280239e-6 
7.352926645000426e-11 
2.1428201109056788e-14 
3.467309809699787e-9 
0.0017166223894391334 
0.0010160297557184179 
0.7671792522654826 
0.2520771971239758 
0.2809267016805099 
0.9927621317476415 
-3.120941197334997e-8 
8.375783584658837e-12 
2.3564175316595235e-7 
1.007362000390049 
0.00017753872172625697 
0.9996559141499041 
3.8056891046735555e-8 
0.21836495624033644 
-6.60737586663812e-13 
0.5150568068371197 
-1.5927508629028088e-8 
-2.3340754265836737e-9 
0.920210434505183 
0.0060262520583658765 
0.020239512451804324 
0.8250392131402952 
6.500291844522466e-7 
6.268421182094231e-5 
0.0034217975186344235 
0.0004987824380789119 
2.21848676132644e-13 
-6.361896522696807e-16 
7.70475555839878e-9 
0.012691847726954713 
0.037627850658531053 
9.730777683782411e-11 
0.9039408616599398 
-2.570819555666944e-6 
3.421142912519928e-5 
-7.740370122841254e-8 
3.367204088287243e-10 
0.9908382375994589 
0.6980661098267886 
0.9968385929897722 
0.2433952907961949 
0.0008006873627063618 
-1.1609312457247894e-12 
1.5021268734951435e-8 
-4.398891030493753e-13 
-1.3501166052203685e-13 
-3.7225802041990906e-8 
9.961167248574656e-11 
-3.226882812912019e-12 
6.815599063522902e-6 
0.41017306910758783 
0.06142601688509492 
-5.753044756554985e-11 
0.013311701799636382 
0.00016967914347950941 
1.4810386122112135e-7 
0.9981564054563767 
0.00015160169968491159 
0.6841824271170849 
8.160014807658056e-9 
0.9988899639840528 
1.0232643646411014e-9 
0.44325708197312297 
-1.708150320122032e-7 
0.21612203444595518 
0.6605711781219079 
0.96517519710794 
0.3928740725188336 
0.1357200841140359 
7.412380920916331e-5 
0.7515682464111442 
0.9552035380928062 
0.0851495256630879 
0.989706938682411 
7.375968803181241e-5 
0.13474247350149154 
0.08917990478686581 
4.638771935476139e-8 
0.005861668389516142 
0.9289121465887614 
9.466334028850897e-6 
-3.287738632501969e-8 
-1.8933340512497742e-5 
0.9847360541065064 
5.586252274374435e-12 
-1.0425359545405353e-10 
1.4539849745968117e-8 
2.3564123554116146e-10 
-3.776409367979028e-12 
0.8667166533098363 
0.23162962275798618 
1.0000663464337816 
0.9946012021125377 
0.46358909916469543 
-4.684843907616515e-10 
-4.315222862372313e-8 
0.0011338320269470045 
0.0009152150426171071 
6.878041295399383e-6 
0.009025121108820117 
1.0013558065793062 
7.158162616148784e-7 
0.00836776042610707 
-2.6298817622382485e-13 
4.8567656065177885e-14 
-4.897402669080953e-6 
0.005355138219161801 
6.136967511003794e-9 
1.0009304411747484 
-6.643912339588693e-13 
0.0050393052846802915 
4.665761002937231e-5 
2.202806784092628e-8 
0.04789858149985355 
2.950301999482437e-6 
0.00016800704978770683 
0.0002932289423037557 
1.6640173969328364e-6 
8.955037736562592e-12 
6.735992378879664e-9 
-1.7668595408535886e-8 
3.222148460626916e-13 
8.15282087033735e-15 
0.9988661768273549 
-3.0918475734895065e-7 
2.0486780192987285e-7 
0.039003572201126366 
0.0060851150935895965 
3.4584610933676207e-5 
0.11084997173645154 
3.3175792167805166e-8 
0.48863755684229815 
0.021956760721492122 
2.556902797704032e-10 
8.784918633573712e-13 
3.0066136780942034e-15 
0.7341385857978473 
0.9394233344464242 
0.981721279154128 
-1.7519933874717383e-14 
0.808566859651019 
-9.14204734896918e-9 
0.33424579024228995 
1.0079247939202858 
0.16328626329481352 
0.475375574114943 
0.8887880787007225 
-2.3760060639221975e-13 
0.10287886867726319 
8.725907888907318e-5 
-4.43627561066452e-13 
0.8487867907499217 
4.0011232443687664e-5 
0.04149187425889154 
0.0004156917633712504 
0.003047299589260885 
1.8372680092554144e-7 
7.913255361706151e-8 
-7.809021803308037e-12 
0.01878914728838809 
-1.199834587320767e-6 
7.83086702944469e-5 
0.39968658667330964 
9.679078848571644e-7 
0.5594084260413202 
3.319734497207487e-11 
0.7043810904136906 
0.9965743566662512 
0.852304049328094 
1.6037462717607552e-9 
3.590081901710438e-6 
-3.6702778139545923e-6 
-2.0761972263106154e-8 
0.027143914181115922 
-1.7570318724978647e-9 
0.0013939995615664257 
-4.857013917935784e-11 
-5.910937872331052e-9 
-3.4680729827311853e-7 
1.0003711645308522 
1.32725561465405e-9 
0.02525570835096063 
1.565049103943965e-8 
-7.865899371684577e-14 
-5.228558610486099e-13 
7.797472290095403e-10 
0.000212482675559404 
5.155190063640722e-13 
0.002915422841519887 
4.1320218448052444e-7 
1.0011634157983242 
0.4747995218415579 
5.916314645718238e-7 
0.114824601141713 
1.0720998327342544e-10 
-6.853759122322504e-11 
0.11264966231624512 
-2.825922487411734e-7 
4.919333521605969e-9 
0.0001770494260076061 
0.9962821900553058 
-3.7599951940451094e-7 
0.6709237056939382 
0.974345137843859 
0.8515455438433959 
-3.0912595064359165e-10 
0.5234040090810373 
-2.1287239103097753e-10 
2.8607732229726876e-10 
0.28193657781487036 
7.711485621055896e-14 
4.398276284438947e-10 
5.5722192968983504e-5 
0.0005281143365515064 
0.9972446741804242 
1.794424118513247e-14 
0.5919024296484774 
0.06333684001497637 
0.003695513574294498 
-3.918363338253238e-8 
2.1446021346818042e-5 
0.003376770957151189 
0.8001283082633064 
0.001643718139108011 
-3.2082434193316956e-12 
-3.2893455762335854e-12 
5.699131751100563e-15 
1.4371827097828875e-15 
2.156373449632843e-11 
0.8704250168888823 
0.0482670680473058 
-1.1339587066834762e-8 
-2.8599086510818966e-12 
0.2300629483237921 
1.3858161550449213e-6 
0.0005159312078096329 
0.9616425590203771 
3.407531810758365e-5 
0.04775145786820835 
0.9989717618582963 
-6.112565668792581e-8 
0.13641345345394884 
0.9433732837643128 
5.536225839683725e-10 
0.7391893240813573 
0.9961285343809415 
-6.833526033634933e-10 
0.25536534884756484 
7.5206719197272e-9 
0.00030755334587261523 
0.3801142412289588 
0.23950592489410683 
0.9751555526004926 
0.00010123938264690078 
3.734235736786498e-7 
0.015337820596270601 
0.737433652626134 
2.2040582283001993e-11 
-9.04747598983517e-8 
0.6660046869188034 
3.516249031697964e-12 
7.050046663548478e-6 
0.35807038535137814 
1.0028312504868224 
2.8280264377910367e-13 
2.2120556619485743e-15 
-1.8292755982121627e-6 
1.4727898121695912e-11 
1.3190483270100505e-6 
5.656593016404132e-6 
0.2972947066153321 
0.9166350313217744 
1.0003556140081784 
0.0017727075190246487 
0.441121040782531 
0.17715537898353614 
-5.9518542805204045e-9 
9.742880208531764e-6 
0.01931237813218282 
-3.1664130327015036e-8 
0.9967708372946535 
4.347321675078861e-9 
1.4243058371365055e-9 
0.012804450979548123 
0.48213978183202294 
-6.408252053837918e-9 
3.701843493190021e-6 
0.9030230571459898 
1.1391071041477054e-6 
0.9977167418631684 
0.9259478240982099 
3.065114062729708e-7 
0.6197887986849802 
-1.2646705015299092e-7 
0.9996599897291302 
0.5839812823200677 
0.0007240993945989415 
-1.901192669191606e-12 
0.24761115201740955 
1.7089460537699453e-7 
0.005318179670782782 
1.9672782231270014e-11 
8.661117410559313e-6 
0.023107337251393835 
0.06509874569407822 
1.0011904518540646 
0.00025127239819677035 
-5.511872228899359e-13 
4.671516840513246e-11 
0.8329828936484538 
1.3585990104784076e-6 
1.5154146048348163e-10 
1.0001084763016892 
0.9524750107087556 
2.0991485307001645e-9 
4.4291098297438284e-5 
0.16753364602462748 
0.9884384975686363 
0.11458219445016006 
-4.1986096310006265e-7 
0.6835529982734837 
0.14160925207383737 
0.5986604701432751 
-5.399771802626734e-9 
0.005175778674248897 
-1.8847270583650248e-11 
4.084655696812098e-12 
1.0185449056435338 
0.1356835107903822 
1.0176837504419437e-7 
0.0006828739953801957 
0.37129765902909384 
0.003244969968379246 
0.9616358203604444 
0.00022841308890101316 
0.998702313353926 
0.023946713610126607 
-3.255418042910443e-8 
0.0006205309093350164 
-6.513040947125224e-8 
8.531161466744132e-14 
1.8180505940675862e-16 
2.054512222251827e-5 
