# vtk DataFile Version 3.0 
Unstructured Grid 
ASCII 
DATASET UNSTRUCTURED_GRID
POINTS 437 float 
0.5 0 0  
1 0 0  
1 1 0  
0 1 0  
0 0.5 0  
0.5 0.5 0  
0.55 0 0  
0.6 0 0  
0.65 0 0  
0.7 0 0  
0.75 0 0  
0.8 0 0  
0.85 0 0  
0.9 0 0  
0.95 0 0  
1 0.05 0  
1 0.1 0  
1 0.15 0  
1 0.2 0  
1 0.25 0  
1 0.3 0  
1 0.35 0  
1 0.4 0  
1 0.45 0  
1 0.5 0  
1 0.55 0  
1 0.6 0  
1 0.65 0  
1 0.7 0  
1 0.75 0  
1 0.8 0  
1 0.85 0  
1 0.9 0  
1 0.95 0  
0.95 1 0  
0.9 1 0  
0.85 1 0  
0.8 1 0  
0.75 1 0  
0.7 1 0  
0.65 1 0  
0.6 1 0  
0.55 1 0  
0.5 1 0  
0.45 1 0  
0.4 1 0  
0.35 1 0  
0.3 1 0  
0.25 1 0  
0.2 1 0  
0.15 1 0  
0.1 1 0  
0.05 1 0  
0 0.95 0  
0 0.9 0  
0 0.85 0  
0 0.8 0  
0 0.75 0  
0 0.7 0  
0 0.65 0  
0 0.6 0  
0 0.55 0  
0.05 0.5 0  
0.1 0.5 0  
0.15 0.5 0  
0.2 0.5 0  
0.25 0.5 0  
0.3 0.5 0  
0.35 0.5 0  
0.4 0.5 0  
0.45 0.5 0  
0.5 0.45 0  
0.5 0.4 0  
0.5 0.35 0  
0.5 0.3 0  
0.5 0.25 0  
0.5 0.2 0  
0.5 0.15 0  
0.5 0.1 0  
0.5 0.05 0  
0.7067263 0.70899034 0  
0.7462131 0.3784907 0  
0.275 0.75 0  
0.49203128 0.7759238 0  
0.8004979 0.19051445 0  
0.8169689 0.5569046 0  
0.8379451 0.8232311 0  
0.6651841 0.5643974 0  
0.6586247 0.24525054 0  
0.39886913 0.6556846 0  
0.6357807 0.845222 0  
0.15416667 0.65416664 0  
0.15469871 0.8490102 0  
0.37710553 0.86057764 0  
0.8530772 0.68242943 0  
0.5399757 0.6405682 0  
0.87012184 0.30832314 0  
0.6218386 0.41301885 0  
0.8712292 0.43948308 0  
0.6270563 0.12650847 0  
0.2721758 0.6146517 0  
0.26237586 0.88543755 0  
0.5290535 0.8872315 0  
0.8881946 0.111421056 0  
0.59896 0.74404466 0  
0.73382306 0.10964348 0  
0.7398329 0.9080902 0  
0.7300285 0.48150903 0  
0.10457365 0.74805343 0  
0.5998279 0.32869247 0  
0.4013559 0.7541197 0  
0.8998196 0.8998196 0  
0.7425495 0.27230954 0  
0.90489763 0.5939467 0  
0.7320272 0.6158908 0  
0.90734863 0.2194375 0  
0.90656686 0.7697009 0  
0.74241894 0.80003285 0  
0.632743 0.65343165 0  
0.46277094 0.5961966 0  
0.08243797 0.5905297 0  
0.08731128 0.91282296 0  
0.44904137 0.91765434 0  
0.57323986 0.55955005 0  
0.91513485 0.5138866 0  
0.1836753 0.7418762 0  
0.5856236 0.20050126 0  
0.35569865 0.5818674 0  
0.4717501 0.69469833 0  
0.8203882 0.9111774 0  
0.19848472 0.58481354 0  
0.7232736 0.19122238 0  
0.6770922 0.32269323 0  
0.80834067 0.08196056 0  
0.9230353 0.37846187 0  
0.78589296 0.72803205 0  
0.18855475 0.91950625 0  
0.6022492 0.9193816 0  
0.07701049 0.6750049 0  
0.07779311 0.8285882 0  
0.33496442 0.69013095 0  
0.22651649 0.8130275 0  
0.33345127 0.9266774 0  
0.56306595 0.81706417 0  
0.79485846 0.43853834 0  
0.57445616 0.4795266 0  
0.30524647 0.8211264 0  
0.8098617 0.6293174 0  
0.66652167 0.7748195 0  
0.44695833 0.83554715 0  
0.58482915 0.07054804 0  
0.92909133 0.6757825 0  
0.82267326 0.3699049 0  
0.6750539 0.9307201 0  
0.6726681 0.069687515 0  
0.22284219 0.6692463 0  
0.9308683 0.2891792 0  
0.930985 0.8368545 0  
0.57183284 0.395735 0  
0.56719327 0.267426 0  
0.8295321 0.2563277 0  
0.702163 0.41558313 0  
0.6631986 0.48596716 0  
0.5332523 0.7285968 0  
0.9389338 0.15767792 0  
0.9392354 0.06812419 0  
0.74606097 0.5461627 0  
0.668234 0.16889203 0  
0.82325417 0.7682245 0  
0.86888987 0.49205798 0  
0.9373707 0.42941386 0  
0.27492446 0.5574591 0  
0.7591465 0.66997904 0  
0.5625162 0.14507365 0  
0.698026 0.84136397 0  
0.33979788 0.7690552 0  
0.4100188 0.5701878 0  
0.86549294 0.1689855 0  
0.15718786 0.7919015 0  
0.14695793 0.56156343 0  
0.49887148 0.9348564 0  
0.39005366 0.9400572 0  
0.2756479 0.94468254 0  
0.79987353 0.31934652 0  
0.79108334 0.48730215 0  
0.7893297 0.13692713 0  
0.8729007 0.040251754 0  
0.65027624 0.3686311 0  
0.94156647 0.94156647 0  
0.77622527 0.94636667 0  
0.6486954 0.7048788 0  
0.5761476 0.67128414 0  
0.77190053 0.83744544 0  
0.60624254 0.5986166 0  
0.7550012 0.06245598 0  
0.50134873 0.8411101 0  
0.68467325 0.64302444 0  
0.053087775 0.72582155 0  
0.139265 0.9408418 0  
0.95088 0.7243738 0  
0.9432815 0.5566516 0  
0.86394966 0.9434744 0  
0.6805639 0.11338498 0  
0.20661557 0.866214 0  
0.5136965 0.55900043 0  
0.61441326 0.79211885 0  
0.5533345 0.9442417 0  
0.86748934 0.5476702 0  
0.45131102 0.7447211 0  
0.9522712 0.6298776 0  
0.49115333 0.6454875 0  
0.57800794 0.87019897 0  
0.14164469 0.70855445 0  
0.38005453 0.7027296 0  
0.27368295 0.69533986 0  
0.049783085 0.62717026 0  
0.049414515 0.87215096 0  
0.62649876 0.043947894 0  
0.8786532 0.85014766 0  
0.34885973 0.6374005 0  
0.5949198 0.5178657 0  
0.86131465 0.63502216 0  
0.79260343 0.80256337 0  
0.7014114 0.5166631 0  
0.40068594 0.814811 0  
0.55082065 0.3157755 0  
0.6816506 0.59935296 0  
0.3207115 0.869895 0  
0.05274013 0.55274016 0  
0.05274013 0.94725984 0  
0.6400825 0.29462123 0  
0.70826656 0.24477807 0  
0.7619463 0.22610597 0  
0.052983053 0.7814943 0  
0.7439376 0.3234126 0  
0.95078784 0.88415176 0  
0.9592077 0.22841401 0  
0.84777594 0.1277937 0  
0.9565159 0.32835326 0  
0.87450755 0.38491434 0  
0.8723333 0.26038516 0  
0.2202579 0.9566307 0  
0.5511588 0.44135624 0  
0.89094824 0.71469563 0  
0.14088513 0.8952839 0  
0.9426072 0.110777475 0  
0.5598569 0.76635987 0  
0.7797588 0.58802515 0  
0.73662144 0.7500704 0  
0.80291736 0.6806566 0  
0.3250526 0.545103 0  
0.47699997 0.87967384 0  
0.109880045 0.6315259 0  
0.9565706 0.4731244 0  
0.9520049 0.7877815 0  
0.41847795 0.61317724 0  
0.7469016 0.43319932 0  
0.6651573 0.8785795 0  
0.6980314 0.36945662 0  
0.22855084 0.7651636 0  
0.5426688 0.22467211 0  
0.85128033 0.20839585 0  
0.6080812 0.24411796 0  
0.22691919 0.54427826 0  
0.42439926 0.70143026 0  
0.87087065 0.7973803 0  
0.71672744 0.95107883 0  
0.83949435 0.5922577 0  
0.34957552 0.8123493 0  
0.51278394 0.6086165 0  
0.15431206 0.6098422 0  
0.6343587 0.9556687 0  
0.8392547 0.8737899 0  
0.7109742 0.042080052 0  
0.23100297 0.62427217 0  
0.5484106 0.51544434 0  
0.42224586 0.8707757 0  
0.10496536 0.8650706 0  
0.11225842 0.7941315 0  
0.429402 0.95576584 0  
0.46295157 0.54450357 0  
0.10164671 0.5457688 0  
0.5822864 0.63314605 0  
0.37762833 0.53745234 0  
0.8275239 0.04005421 0  
0.8323437 0.41491747 0  
0.44464156 0.7891728 0  
0.90912354 0.4597161 0  
0.26412204 0.8401569 0  
0.26712763 0.7957094 0  
0.62024623 0.47111306 0  
0.7770051 0.8863074 0  
0.8221126 0.9602037 0  
0.5225849 0.68752897 0  
0.76535124 0.17708147 0  
0.31416538 0.59776855 0  
0.53816175 0.1840494 0  
0.6130816 0.16364412 0  
0.7091263 0.2886451 0  
0.22773811 0.71831167 0  
0.9012153 0.33257928 0  
0.18447237 0.53813106 0  
0.18472914 0.6879896 0  
0.82954866 0.46472684 0  
0.17961553 0.9633957 0  
0.36685705 0.9008585 0  
0.44457012 0.65111244 0  
0.8385268 0.7209097 0  
0.7115207 0.14475605 0  
0.09503517 0.95690435 0  
0.7880896 0.39571288 0  
0.96492094 0.38520482 0  
0.5563232 0.6018296 0  
0.31393582 0.73382735 0  
0.49519077 0.7332941 0  
0.9629974 0.5187325 0  
0.5415193 0.100338124 0  
0.9036664 0.6412981 0  
0.3244769 0.96671104 0  
0.2306904 0.9144942 0  
0.035453074 0.6754281 0  
0.035497267 0.82603335 0  
0.18655832 0.81865835 0  
0.54264426 0.042344484 0  
0.70526683 0.56849337 0  
0.5891552 0.9625355 0  
0.09987184 0.7080552 0  
0.6646015 0.4450029 0  
0.62016 0.87781084 0  
0.68724763 0.7468739 0  
0.6794575 0.21179324 0  
0.66522187 0.8161647 0  
0.5348051 0.47726545 0  
0.77173877 0.09966874 0  
0.30060795 0.6489708 0  
0.5900102 0.4408019 0  
0.6355171 0.20569986 0  
0.19041659 0.6358006 0  
0.7817328 0.35663295 0  
0.85770756 0.080021024 0  
0.90471005 0.95934963 0  
0.53831446 0.36966592 0  
0.24070142 0.5850949 0  
0.63882816 0.744377 0  
0.6058876 0.3669202 0  
0.9048971 0.4124307 0  
0.5905425 0.11210937 0  
0.6993429 0.7882209 0  
0.5656613 0.9052634 0  
0.7704826 0.63249016 0  
0.8522724 0.33958897 0  
0.296919 0.9075354 0  
0.9667555 0.83175755 0  
0.5987462 0.28922248 0  
0.11813834 0.6749375 0  
0.38161784 0.6131642 0  
0.6618531 0.40398476 0  
0.6370484 0.08659111 0  
0.038074076 0.5894313 0  
0.038074076 0.9105687 0  
0.96839094 0.6753669 0  
0.14384495 0.75045496 0  
0.5411818 0.84978336 0  
0.52673554 0.8019128 0  
0.7657028 0.46494102 0  
0.961649 0.03835645 0  
0.675 0.030283678 0  
0.7518289 0.70853835 0  
0.96001375 0.18740793 0  
0.9678583 0.27471802 0  
0.67516285 0.9681792 0  
0.59831095 0.83401567 0  
0.9073243 0.5525552 0  
0.8611736 0.90393615 0  
0.5795172 0.033180732 0  
0.5208923 0.96885955 0  
0.47072348 0.967185 0  
0.6462471 0.6071309 0  
0.52937275 0.275 0  
0.26006237 0.6504962 0  
0.73740774 0.8595233 0  
0.8331797 0.2957258 0  
0.47728643 0.80960673 0  
0.9208824 0.037562877 0  
0.9040851 0.18120942 0  
0.70257896 0.8997159 0  
0.97050655 0.074435726 0  
0.36017016 0.7398202 0  
0.7106061 0.0794504 0  
0.63714504 0.33196637 0  
0.890113 0.67338765 0  
0.17423429 0.88494647 0  
0.70125586 0.4576201 0  
0.9066001 0.8085411 0  
0.71885514 0.6719225 0  
0.36035147 0.9661565 0  
0.42251006 0.5290217 0  
0.9723008 0.4259288 0  
0.64294964 0.51980066 0  
0.78817964 0.03501066 0  
0.570402 0.7144006 0  
0.12055232 0.8290842 0  
0.19649777 0.7861254 0  
0.67484623 0.27905807 0  
0.36568695 0.6714864 0  
0.97151566 0.9645467 0  
0.8305832 0.16528471 0  
0.7877058 0.2744767 0  
0.4071035 0.9074601 0  
0.8660333 0.7541822 0  
0.75281197 0.5088334 0  
0.80377316 0.22890417 0  
0.7842619 0.53388166 0  
0.80658257 0.8577738 0  
0.8967399 0.28827333 0  
0.82637364 0.5137572 0  
0.9234294 0.25649244 0  
0.30519488 0.78316474 0  
0.8318979 0.6562427 0  
0.121106885 0.5892234 0  
0.97378284 0.925 0  
0.903588 0.07469306 0  
0.5322612 0.41135144 0  
0.63939583 0.91243213 0  
0.6109627 0.7054028 0  
0.57147133 0.35136378 0  
0.6785297 0.6806924 0  
0.90144104 0.14535177 0  
0.7748313 0.76722825 0  
0.7498974 0.14247963 0  
0.61986715 0.56109023 0  
0.36870277 0.77900666 0  
0.9640754 0.59000534 0  
0.9105131 0.86591715 0  
0.027604798 0.5276048 0  
0.027604798 0.9723952 0  
0.5214134 0.7612175 0  
CELLS 792 3168 
3 407 234 112 
3 413 222 86 
3 183 234 407 
3 108 278 233 
3 97 158 344 
3 124 207 169 
[...]
POINT_DATA 437 
SCALARS T float 
LOOKUP_TABLE default 
0.5000000000012899 
0.5000000000016751 
-5.770122967218028e-20 
2.2248604092994947e-22 
1.493931941144891e-21 
3.889623012431751e-12 
0.9999999999996502 
1.0000000000000078 
1.0000000000000027 
0.9999999999999992 
0.9999999999999928 
0.999999999999993 
1.0000000000000153 
1.0000000000000302 
0.9999999999995312 
4.592374391436516e-12 
2.3092819481556202e-12 
9.851722578734397e-13 
7.077618866940522e-13 
3.6271047810281955e-13 
1.3053075863812736e-13 
6.18818444737542e-14 
3.6790452099099743e-14 
-1.2939575076051695e-14 
9.177477095348485e-15 
-3.177526409785097e-14 
-4.965981945367693e-15 
-2.0173615751706135e-15 
1.2396408737738708e-16 
2.6033467366501407e-16 
1.1622008758506948e-16 
1.447495259693617e-17 
7.406600287415635e-18 
3.3155530432557296e-19 
-5.073533616404387e-19 
-2.7802452459029102e-18 
-2.057814019320286e-17 
-6.561556037153116e-18 
-1.48544928653595e-16 
3.5315651978964155e-16 
5.597531636657325e-16 
8.65799050711328e-16 
7.911690398318093e-16 
6.76881675561444e-16 
3.7936554365105895e-16 
2.111886570113689e-16 
7.584011506391365e-17 
3.2914095163979756e-17 
3.203262179184364e-18 
7.350099649074654e-19 
2.9781038762294083e-19 
-2.478020667949736e-21 
-8.962740409329603e-22 
4.441357824180735e-22 
-3.78345009507074e-21 
-7.617767379422402e-21 
-2.8341140142617166e-20 
-5.351238652866534e-20 
-4.790457382025884e-20 
-1.7487517476381525e-20 
1.3734410822949737e-20 
1.0490733856584796e-20 
1.0512694978562632e-20 
1.7739146330373927e-20 
4.97834278369911e-19 
1.5341794239417144e-18 
1.518646232887989e-18 
-2.2830486990937113e-17 
-4.2731839808851804e-16 
-1.1726277848344678e-16 
-4.5519298766570654e-14 
5.595889901698004e-12 
5.783500257555121e-12 
5.980780192402066e-12 
6.004921408725333e-12 
4.953751005400008e-12 
4.168005390944345e-12 
4.166571974725063e-12 
3.0983758793446624e-12 
4.577442351221903e-12 
0.0833919867262797 
0.9602813262874401 
0.00015823434326387725 
0.008464527718050806 
1.000633620505481 
0.2991734983382748 
0.0003518000630544957 
0.444854152267495 
0.9921853475734829 
0.011448215027426755 
0.005023283553497818 
4.6176532978240654e-7 
3.564899567577701e-7 
0.00022826507843612005 
0.02148157529543086 
0.10452911680758155 
0.8064623969119618 
0.809883037851562 
0.4321354326215915 
0.9968766716745667 
7.980187763512533e-5 
6.542902430732265e-6 
0.0010959711292691313 
1.007489219942165 
0.03921618450338838 
1.000258171312284 
0.00025024663263899954 
0.7527924876776855 
1.57986946325047e-7 
0.9060047490081432 
0.0029518502545939494 
-2.666151120684016e-6 
0.9977050977301244 
0.025962601260795946 
0.27581521725128166 
0.8268280303312726 
0.00022852363914827077 
0.008584102429896805 
0.16748769905857616 
0.06257268473843813 
-3.471355309653698e-9 
9.624292547729518e-10 
0.0002237362449505734 
0.3063623875207613 
0.0796614885429743 
7.003370188755442e-6 
0.9720653956248005 
0.0014128205720217533 
0.023821212754496168 
4.920646897617485e-6 
-1.2954211183534697e-6 
0.9994705897101492 
0.9776152660788231 
0.9972334825512665 
0.27818125915555464 
0.028913377150794138 
2.2397082818745644e-7 
0.000522116474311945 
-1.7886205910418346e-8 
1.0294764126894927e-8 
0.001791287792298619 
1.155446889708437e-5 
1.9810451695689175e-5 
0.007503142816646617 
0.7793683776128711 
0.5100004953610644 
0.00010610103525710559 
0.1266133368414973 
0.026210094181321746 
0.0014495211853962063 
0.9976503481360582 
0.0019583913790861282 
0.8637361115548716 
0.0002485160014237709 
0.9993112750749368 
3.368560829173812e-5 
0.45022924138217546 
-7.315650354829529e-6 
0.7377115165940867 
0.8864647615789009 
0.9864038152747218 
0.9001401423044237 
0.6908385072847449 
0.029866338003960262 
0.7514984725203944 
0.9551637955666629 
0.5102533137877477 
1.0011141321458301 
0.004285699420355886 
0.2861754483549922 
0.1167522958955195 
-5.794880751301655e-6 
0.11609794772712266 
0.9477720896197505 
0.004042040110471404 
0.0006702728476409271 
0.00702359696782332 
0.9856102881360559 
1.2706633919890857e-6 
-6.182337281110848e-8 
0.0002389493519837955 
5.108191752496524e-5 
3.006861360301491e-6 
0.9793913656489323 
0.6322131190022897 
1.0002726637193757 
0.9946220826143787 
0.9216675942287598 
-2.3637222958189695e-7 
-8.410127593779603e-6 
0.08848199171656257 
0.09730962425752311 
0.0016766607088614745 
0.2641882205725462 
1.0011401561308755 
0.002669020033880057 
0.21669243301309163 
-3.3675149747584513e-9 
2.4574105908883825e-8 
1.913407591103562e-5 
0.01514857716147484 
-3.5665157871375483e-6 
1.0007175032104438 
1.5091328861964472e-6 
0.1926361614640639 
0.01689711284516253 
0.00024107882085663907 
0.1559344780822741 
0.00811053252879098 
0.0015975675357544062 
0.06035271522276026 
0.002488477285145494 
8.267570483213781e-7 
0.004470593388280631 
0.00026326766668891287 
-4.209082458160392e-9 
-3.709140719471635e-10 
0.9989417646677924 
4.500154653856761e-6 
0.002977428895238283 
0.44905286716036097 
0.04649873740838693 
0.0035108324832400103 
0.6406726631007209 
0.0009135763022265888 
0.9688427798549964 
0.34190994396829955 
4.6602894140717866e-5 
3.4365487846717122e-9 
3.371466010239978e-10 
0.9835348875661633 
1.000178893580312 
1.0005214202128772 
-3.349995389899542e-9 
0.9944041819225141 
-1.8057342598997025e-6 
0.334404093218504 
1.0081108220424082 
0.1683428244800197 
0.5817285058714788 
0.8981705685827379 
4.905028024664183e-7 
0.6606606868732046 
0.002210504597257013 
5.722389682134142e-8 
0.8487791663963523 
0.02035270943421554 
0.2996602731959965 
0.02960807390314808 
0.057764729018849395 
4.7024082166136236e-5 
0.0008108792935119826 
-7.008318865807824e-8 
0.029028367785705094 
-3.491639568600727e-5 
0.02348689290226443 
0.875786112222535 
0.0017291869606569264 
0.9560090807712892 
3.0143633814581174e-5 
0.8465506617738571 
0.9981400639313649 
1.0019819899062286 
-1.5277373581051193e-6 
0.010409228345394017 
0.00024526538273842753 
5.562468624674085e-5 
0.14303025363053007 
0.00033353198550323336 
0.11913391703063389 
-2.9018327571529914e-7 
0.0001496492652075154 
1.7018712617288955e-5 
1.0001601005411231 
1.5716112682209663e-5 
0.41772307359148964 
0.00045431314139540626 
2.147071419861434e-8 
1.4025155674713924e-7 
6.172179349007122e-5 
0.028177108623498984 
9.466026389318096e-9 
0.16148438234130041 
0.0005534350518919788 
1.0011751332240602 
0.7103821982376772 
0.003302648067752808 
0.17961740136608034 
2.111874330906618e-5 
5.846761207672167e-5 
0.6613512439792002 
0.00017757143015934248 
9.471767320192733e-7 
0.04782907606248944 
0.9999751508166429 
0.0003385810151112335 
0.7208413565046675 
0.9945124357869537 
0.9934636871359894 
4.6207096533173484e-5 
0.55463912094162 
-1.6848808124073952e-7 
7.001369280866799e-6 
0.5639421475694786 
1.0345751366500094e-7 
8.112868132293183e-5 
0.028321915588654024 
0.012154927715151607 
1.0004012802229594 
2.9427845409744485e-9 
0.89962918026967 
0.07074126023357209 
0.18411298370219575 
0.0006022069745549416 
0.01789430374603754 
0.0059555447052207795 
0.8059635602631641 
0.010723515579096173 
7.44001546700387e-6 
1.3831337651236589e-6 
-5.8567631722159195e-9 
-2.557003048798504e-10 
2.92862760152458e-6 
0.868646848057905 
0.4543601847269947 
0.0001325870998583913 
6.04321032385602e-8 
0.8013417583222252 
0.0019989821467230207 
0.04449898644568259 
1.0000441354083607 
0.009710604816664883 
0.5103826975539234 
0.9992697344122399 
0.0006446575222032688 
0.6659289958752432 
0.9925482642881643 
2.4802401745261055e-6 
0.9583453342687093 
0.996220470446291 
-2.957887275212047e-7 
0.8077035715171619 
7.806567397503904e-7 
0.04476815256975085 
0.8743446325658821 
0.3093131529684064 
0.9778370009437519 
0.016370134478681356 
0.0009793178785504808 
0.181415046512363 
0.8256148960539927 
1.2321793522307265e-5 
-7.004180016701937e-6 
0.9330883766138767 
2.562531303042674e-8 
0.007717195501962464 
0.8793453532385459 
1.0035028516930709 
1.4227534050347799e-9 
-1.5049619830784725e-10 
0.00018026653583600512 
1.3590102406628021e-6 
0.0032024820588430385 
0.007709939083002359 
0.7646754158096984 
0.9166130794028038 
1.0002414988746269 
0.06138090617821622 
0.44101793551881224 
0.1789059814493409 
5.673209364016079e-5 
0.006723077172722365 
0.05739787860286403 
-2.5517984714146132e-6 
0.9967053524405736 
0.00010348070567306662 
7.039538410121076e-5 
0.2939281418129195 
0.7278083547940303 
0.00014437014876891356 
0.0015925044635578967 
0.952946872213666 
0.003776199806534718 
0.9977102574160982 
0.9266660298783383 
0.0005770819333418624 
0.6197561476365316 
0.0016572510532071184 
1.0000325404214387 
0.9504625024940141 
0.008491840724478743 
3.751273335949116e-7 
0.8144818488212726 
5.725158211621104e-5 
0.14231063748582415 
1.6619299951244115e-5 
0.0037155277217342684 
0.02944066703930429 
0.5583063267266948 
1.0012222504597088 
0.05162713766868128 
1.1576961196586668e-7 
7.549943463731749e-6 
0.988822574322045 
0.005016582199249039 
-2.4365864791661792e-8 
1.0014246888388063 
0.9975174433412457 
0.00015324082465521644 
0.002227574358118751 
0.6459190698682418 
1.001004437555718 
0.4770469123015958 
0.000340216225656274 
0.7000473764677542 
0.4070221147297977 
0.6024372744935046 
0.00021703403885733788 
0.05970732060686494 
-4.8780921338098213e-8 
-1.6396673956822266e-7 
1.0185045712837484 
0.6906072716206852 
0.0007137967184273157 
0.07762416409803934 
0.8704304220045056 
0.1340732499417249 
0.9615739708428579 
0.014108673764882097 
1.0000539702466156 
0.38636414787767165 
0.001061726489185499 
0.0016185766427432434 
-5.797527776004988e-6 
6.925760021371277e-10 
6.634024642909978e-11 
0.015581713531808924 
