# vtk DataFile Version 3.0 
Unstructured Grid 
ASCII 
DATASET UNSTRUCTURED_GRID
POINTS 437 float 
0.5 0 0  
1 0 0  
1 1 0  
0 1 0  
0 0.5 0  
0.5 0.5 0  
0.55 0 0  
0.6 0 0  
0.65 0 0  
0.7 0 0  
0.75 0 0  
0.8 0 0  
0.85 0 0  
0.9 0 0  
0.95 0 0  
1 0.05 0  
1 0.1 0  
1 0.15 0  
1 0.2 0  
1 0.25 0  
1 0.3 0  
1 0.35 0  
1 0.4 0  
1 0.45 0  
1 0.5 0  
1 0.55 0  
1 0.6 0  
1 0.65 0  
1 0.7 0  
1 0.75 0  
1 0.8 0  
1 0.85 0  
1 0.9 0  
1 0.95 0  
0.95 1 0  
0.9 1 0  
0.85 1 0  
0.8 1 0  
0.75 1 0  
0.7 1 0  
0.65 1 0  
0.6 1 0  
0.55 1 0  
0.5 1 0  
0.45 1 0  
0.4 1 0  
0.35 1 0  
0.3 1 0  
0.25 1 0  
0.2 1 0  
0.15 1 0  
0.1 1 0  
0.05 1 0  
0 0.95 0  
0 0.9 0  
0 0.85 0  
0 0.8 0  
0 0.75 0  
0 0.7 0  
0 0.65 0  
0 0.6 0  
0 0.55 0  
0.05 0.5 0  
0.1 0.5 0  
0.15 0.5 0  
0.2 0.5 0  
0.25 0.5 0  
0.3 0.5 0  
0.35 0.5 0  
0.4 0.5 0  
0.45 0.5 0  
0.5 0.45 0  
0.5 0.4 0  
0.5 0.35 0  
0.5 0.3 0  
0.5 0.25 0  
0.5 0.2 0  
0.5 0.15 0  
0.5 0.1 0  
0.5 0.05 0  
0.7067263 0.70899034 0  
0.7462131 0.3784907 0  
0.275 0.75 0  
0.49203128 0.7759238 0  
0.8004979 0.19051445 0  
0.8169689 0.5569046 0  
0.8379451 0.8232311 0  
0.6651841 0.5643974 0  
0.6586247 0.24525054 0  
0.39886913 0.6556846 0  
0.6357807 0.845222 0  
0.15416667 0.65416664 0  
0.15469871 0.8490102 0  
0.37710553 0.86057764 0  
0.8530772 0.68242943 0  
0.5399757 0.6405682 0  
0.87012184 0.30832314 0  
0.6218386 0.41301885 0  
0.8712292 0.43948308 0  
0.6270563 0.12650847 0  
0.2721758 0.6146517 0  
0.26237586 0.88543755 0  
0.5290535 0.8872315 0  
0.8881946 0.111421056 0  
0.59896 0.74404466 0  
0.73382306 0.10964348 0  
0.7398329 0.9080902 0  
0.7300285 0.48150903 0  
0.10457365 0.74805343 0  
0.5998279 0.32869247 0  
0.4013559 0.7541197 0  
0.8998196 0.8998196 0  
0.7425495 0.27230954 0  
0.90489763 0.5939467 0  
0.7320272 0.6158908 0  
0.90734863 0.2194375 0  
0.90656686 0.7697009 0  
0.74241894 0.80003285 0  
0.632743 0.65343165 0  
0.46277094 0.5961966 0  
0.08243797 0.5905297 0  
0.08731128 0.91282296 0  
0.44904137 0.91765434 0  
0.57323986 0.55955005 0  
0.91513485 0.5138866 0  
0.1836753 0.7418762 0  
0.5856236 0.20050126 0  
0.35569865 0.5818674 0  
0.4717501 0.69469833 0  
0.8203882 0.9111774 0  
0.19848472 0.58481354 0  
0.7232736 0.19122238 0  
0.6770922 0.32269323 0  
0.80834067 0.08196056 0  
0.9230353 0.37846187 0  
0.78589296 0.72803205 0  
0.18855475 0.91950625 0  
0.6022492 0.9193816 0  
0.07701049 0.6750049 0  
0.07779311 0.8285882 0  
0.33496442 0.69013095 0  
0.22651649 0.8130275 0  
0.33345127 0.9266774 0  
0.56306595 0.81706417 0  
0.79485846 0.43853834 0  
0.57445616 0.4795266 0  
0.30524647 0.8211264 0  
0.8098617 0.6293174 0  
0.66652167 0.7748195 0  
0.44695833 0.83554715 0  
0.58482915 0.07054804 0  
0.92909133 0.6757825 0  
0.82267326 0.3699049 0  
0.6750539 0.9307201 0  
0.6726681 0.069687515 0  
0.22284219 0.6692463 0  
0.9308683 0.2891792 0  
0.930985 0.8368545 0  
0.57183284 0.395735 0  
0.56719327 0.267426 0  
0.8295321 0.2563277 0  
0.702163 0.41558313 0  
0.6631986 0.48596716 0  
0.5332523 0.7285968 0  
0.9389338 0.15767792 0  
0.9392354 0.06812419 0  
0.74606097 0.5461627 0  
0.668234 0.16889203 0  
0.82325417 0.7682245 0  
0.86888987 0.49205798 0  
0.9373707 0.42941386 0  
0.27492446 0.5574591 0  
0.7591465 0.66997904 0  
0.5625162 0.14507365 0  
0.698026 0.84136397 0  
0.33979788 0.7690552 0  
0.4100188 0.5701878 0  
0.86549294 0.1689855 0  
0.15718786 0.7919015 0  
0.14695793 0.56156343 0  
0.49887148 0.9348564 0  
0.39005366 0.9400572 0  
0.2756479 0.94468254 0  
0.79987353 0.31934652 0  
0.79108334 0.48730215 0  
0.7893297 0.13692713 0  
0.8729007 0.040251754 0  
0.65027624 0.3686311 0  
0.94156647 0.94156647 0  
0.77622527 0.94636667 0  
0.6486954 0.7048788 0  
0.5761476 0.67128414 0  
0.77190053 0.83744544 0  
0.60624254 0.5986166 0  
0.7550012 0.06245598 0  
0.50134873 0.8411101 0  
0.68467325 0.64302444 0  
0.053087775 0.72582155 0  
0.139265 0.9408418 0  
0.95088 0.7243738 0  
0.9432815 0.5566516 0  
0.86394966 0.9434744 0  
0.6805639 0.11338498 0  
0.20661557 0.866214 0  
0.5136965 0.55900043 0  
0.61441326 0.79211885 0  
0.5533345 0.9442417 0  
0.86748934 0.5476702 0  
0.45131102 0.7447211 0  
0.9522712 0.6298776 0  
0.49115333 0.6454875 0  
0.57800794 0.87019897 0  
0.14164469 0.70855445 0  
0.38005453 0.7027296 0  
0.27368295 0.69533986 0  
0.049783085 0.62717026 0  
0.049414515 0.87215096 0  
0.62649876 0.043947894 0  
0.8786532 0.85014766 0  
0.34885973 0.6374005 0  
0.5949198 0.5178657 0  
0.86131465 0.63502216 0  
0.79260343 0.80256337 0  
0.7014114 0.5166631 0  
0.40068594 0.814811 0  
0.55082065 0.3157755 0  
0.6816506 0.59935296 0  
0.3207115 0.869895 0  
0.05274013 0.55274016 0  
0.05274013 0.94725984 0  
0.6400825 0.29462123 0  
0.70826656 0.24477807 0  
0.7619463 0.22610597 0  
0.052983053 0.7814943 0  
0.7439376 0.3234126 0  
0.95078784 0.88415176 0  
0.9592077 0.22841401 0  
0.84777594 0.1277937 0  
0.9565159 0.32835326 0  
0.87450755 0.38491434 0  
0.8723333 0.26038516 0  
0.2202579 0.9566307 0  
0.5511588 0.44135624 0  
0.89094824 0.71469563 0  
0.14088513 0.8952839 0  
0.9426072 0.110777475 0  
0.5598569 0.76635987 0  
0.7797588 0.58802515 0  
0.73662144 0.7500704 0  
0.80291736 0.6806566 0  
0.3250526 0.545103 0  
0.47699997 0.87967384 0  
0.109880045 0.6315259 0  
0.9565706 0.4731244 0  
0.9520049 0.7877815 0  
0.41847795 0.61317724 0  
0.7469016 0.43319932 0  
0.6651573 0.8785795 0  
0.6980314 0.36945662 0  
0.22855084 0.7651636 0  
0.5426688 0.22467211 0  
0.85128033 0.20839585 0  
0.6080812 0.24411796 0  
0.22691919 0.54427826 0  
0.42439926 0.70143026 0  
0.87087065 0.7973803 0  
0.71672744 0.95107883 0  
0.83949435 0.5922577 0  
0.34957552 0.8123493 0  
0.51278394 0.6086165 0  
0.15431206 0.6098422 0  
0.6343587 0.9556687 0  
0.8392547 0.8737899 0  
0.7109742 0.042080052 0  
0.23100297 0.62427217 0  
0.5484106 0.51544434 0  
0.42224586 0.8707757 0  
0.10496536 0.8650706 0  
0.11225842 0.7941315 0  
0.429402 0.95576584 0  
0.46295157 0.54450357 0  
0.10164671 0.5457688 0  
0.5822864 0.63314605 0  
0.37762833 0.53745234 0  
0.8275239 0.04005421 0  
0.8323437 0.41491747 0  
0.44464156 0.7891728 0  
0.90912354 0.4597161 0  
0.26412204 0.8401569 0  
0.26712763 0.7957094 0  
0.62024623 0.47111306 0  
0.7770051 0.8863074 0  
0.8221126 0.9602037 0  
0.5225849 0.68752897 0  
0.76535124 0.17708147 0  
0.31416538 0.59776855 0  
0.53816175 0.1840494 0  
0.6130816 0.16364412 0  
0.7091263 0.2886451 0  
0.22773811 0.71831167 0  
0.9012153 0.33257928 0  
0.18447237 0.53813106 0  
0.18472914 0.6879896 0  
0.82954866 0.46472684 0  
0.17961553 0.9633957 0  
0.36685705 0.9008585 0  
0.44457012 0.65111244 0  
0.8385268 0.7209097 0  
0.7115207 0.14475605 0  
0.09503517 0.95690435 0  
0.7880896 0.39571288 0  
0.96492094 0.38520482 0  
0.5563232 0.6018296 0  
0.31393582 0.73382735 0  
0.49519077 0.7332941 0  
0.9629974 0.5187325 0  
0.5415193 0.100338124 0  
0.9036664 0.6412981 0  
0.3244769 0.96671104 0  
0.2306904 0.9144942 0  
0.035453074 0.6754281 0  
0.035497267 0.82603335 0  
0.18655832 0.81865835 0  
0.54264426 0.042344484 0  
0.70526683 0.56849337 0  
0.5891552 0.9625355 0  
0.09987184 0.7080552 0  
0.6646015 0.4450029 0  
0.62016 0.87781084 0  
0.68724763 0.7468739 0  
0.6794575 0.21179324 0  
0.66522187 0.8161647 0  
0.5348051 0.47726545 0  
0.77173877 0.09966874 0  
0.30060795 0.6489708 0  
0.5900102 0.4408019 0  
0.6355171 0.20569986 0  
0.19041659 0.6358006 0  
0.7817328 0.35663295 0  
0.85770756 0.080021024 0  
0.90471005 0.95934963 0  
0.53831446 0.36966592 0  
0.24070142 0.5850949 0  
0.63882816 0.744377 0  
0.6058876 0.3669202 0  
0.9048971 0.4124307 0  
0.5905425 0.11210937 0  
0.6993429 0.7882209 0  
0.5656613 0.9052634 0  
0.7704826 0.63249016 0  
0.8522724 0.33958897 0  
0.296919 0.9075354 0  
0.9667555 0.83175755 0  
0.5987462 0.28922248 0  
0.11813834 0.6749375 0  
0.38161784 0.6131642 0  
0.6618531 0.40398476 0  
0.6370484 0.08659111 0  
0.038074076 0.5894313 0  
0.038074076 0.9105687 0  
0.96839094 0.6753669 0  
0.14384495 0.75045496 0  
0.5411818 0.84978336 0  
0.52673554 0.8019128 0  
0.7657028 0.46494102 0  
0.961649 0.03835645 0  
0.675 0.030283678 0  
0.7518289 0.70853835 0  
0.96001375 0.18740793 0  
0.9678583 0.27471802 0  
0.67516285 0.9681792 0  
0.59831095 0.83401567 0  
0.9073243 0.5525552 0  
0.8611736 0.90393615 0  
0.5795172 0.033180732 0  
0.5208923 0.96885955 0  
0.47072348 0.967185 0  
0.6462471 0.6071309 0  
0.52937275 0.275 0  
0.26006237 0.6504962 0  
0.73740774 0.8595233 0  
0.8331797 0.2957258 0  
0.47728643 0.80960673 0  
0.9208824 0.037562877 0  
0.9040851 0.18120942 0  
0.70257896 0.8997159 0  
0.97050655 0.074435726 0  
0.36017016 0.7398202 0  
0.7106061 0.0794504 0  
0.63714504 0.33196637 0  
0.890113 0.67338765 0  
0.17423429 0.88494647 0  
0.70125586 0.4576201 0  
0.9066001 0.8085411 0  
0.71885514 0.6719225 0  
0.36035147 0.9661565 0  
0.42251006 0.5290217 0  
0.9723008 0.4259288 0  
0.64294964 0.51980066 0  
0.78817964 0.03501066 0  
0.570402 0.7144006 0  
0.12055232 0.8290842 0  
0.19649777 0.7861254 0  
0.67484623 0.27905807 0  
0.36568695 0.6714864 0  
0.97151566 0.9645467 0  
0.8305832 0.16528471 0  
0.7877058 0.2744767 0  
0.4071035 0.9074601 0  
0.8660333 0.7541822 0  
0.75281197 0.5088334 0  
0.80377316 0.22890417 0  
0.7842619 0.53388166 0  
0.80658257 0.8577738 0  
0.8967399 0.28827333 0  
0.82637364 0.5137572 0  
0.9234294 0.25649244 0  
0.30519488 0.78316474 0  
0.8318979 0.6562427 0  
0.121106885 0.5892234 0  
0.97378284 0.925 0  
0.903588 0.07469306 0  
0.5322612 0.41135144 0  
0.63939583 0.91243213 0  
0.6109627 0.7054028 0  
0.57147133 0.35136378 0  
0.6785297 0.6806924 0  
0.90144104 0.14535177 0  
0.7748313 0.76722825 0  
0.7498974 0.14247963 0  
0.61986715 0.56109023 0  
0.36870277 0.77900666 0  
0.9640754 0.59000534 0  
0.9105131 0.86591715 0  
0.027604798 0.5276048 0  
0.027604798 0.9723952 0  
0.5214134 0.7612175 0  
CELLS 792 3168 
3 407 234 112 
3 413 222 86 
3 183 234 407 
3 108 278 233 
3 97 158 344 
3 124 207 169 
[...]
POINT_DATA 437 
SCALARS T float 
LOOKUP_TABLE default 
0.5000000000012899 
0.5000000000016751 
1.00777546161367e-18 
2.661790563386428e-17 
-8.004781573807532e-19 
8.595670736851946e-12 
0.9999999999996505 
1.0000000000000075 
1.0000000000000027 
0.9999999999999991 
0.999999999999993 
0.9999999999999931 
1.0000000000000153 
1.0000000000000302 
0.9999999999995309 
4.592380006316593e-12 
2.3092790592279755e-12 
9.852721369787418e-13 
7.076288833179824e-13 
3.6266808367652884e-13 
1.306044549471067e-13 
6.181960844721054e-14 
3.6995847547499417e-14 
-1.4106895565427224e-14 
9.143631216258783e-15 
-3.176452055427718e-14 
-7.0568471549863e-15 
-2.310488070067569e-15 
2.1689144144071087e-16 
6.99805221068318e-16 
2.652462724372894e-16 
8.259189744837364e-17 
3.454756116970214e-17 
-9.096247510597944e-18 
-2.5516322502051928e-17 
-2.0127810999366664e-18 
-2.5914689593912037e-16 
5.004168333400029e-16 
1.3985495900146027e-15 
1.2508384872246067e-14 
2.822996419811089e-14 
4.83483002176273e-14 
6.693732636681862e-14 
6.674905797969322e-14 
5.983173731034112e-14 
4.9051683889960785e-14 
2.4667477078880335e-14 
1.7227116380652493e-14 
5.589000090512682e-15 
2.1016813028671643e-15 
1.2238908447589278e-15 
5.5180571478068796e-17 
4.138482123481507e-17 
1.388226028157997e-16 
2.595272848588104e-16 
4.373486995205847e-16 
5.786841031533315e-16 
5.592559708623905e-16 
3.676965771778065e-16 
1.328030282462088e-16 
1.2708618247246388e-17 
-4.19399322148661e-18 
-2.7294326725918147e-18 
-3.4123172481798225e-18 
-3.2345516220720014e-17 
-8.490382319832186e-17 
-1.1700610786190695e-15 
-1.4576286096635455e-15 
-3.4507520839550535e-15 
5.3520180136691176e-15 
-1.5482150062977535e-13 
9.927066517905859e-12 
8.407375426417588e-12 
7.336775005765811e-12 
6.579909343660529e-12 
5.143430137138643e-12 
4.211612081371949e-12 
4.173280962786884e-12 
3.0991059042359016e-12 
4.576912787331213e-12 
0.26505230740718627 
0.9848708720137306 
0.020435760133148084 
0.16666869782332258 
1.0007510730734823 
0.36511023951418586 
0.0018340352055635648 
0.818887205307626 
0.9950111858411295 
0.18129114958102394 
0.060434204404200394 
0.0008108330654667791 
0.0008206956404584765 
0.02574474699565068 
0.03530292292379619 
0.5508862422377048 
0.8068939087478296 
0.9862993224000438 
0.43986101076675455 
0.9968454477054512 
0.008548704311707572 
0.004001324716970116 
0.03894194011592032 
1.0074934668842868 
0.28512857808111014 
1.0002133479149802 
0.0032090489015977205 
0.893263200904992 
0.0004351331556053184 
0.9695023803436702 
0.10798168924855839 
3.1630191725534565e-6 
1.000250147953032 
0.03064728361567606 
0.5048655583300088 
0.8268871351811042 
0.0006666269811817841 
0.04318413833632392 
0.5719969541197933 
0.38637840587782746 
9.578624600886976e-6 
7.213592901029504e-5 
0.018523493781913508 
0.8135873986583935 
0.08271458355732254 
0.003358414676742542 
0.9749289100699265 
0.03202962319160706 
0.2974647940145178 
0.00020453206281381621 
0.00035782899082453356 
0.9994910486424046 
1.0000355819115507 
0.9972428851442661 
0.2787899911895679 
0.07513427408349234 
0.0006365969096557641 
0.015607690579904096 
0.0001058651274337351 
0.00015114074676179188 
0.06890567054545202 
0.0052634640061966385 
0.005785770606227979 
0.11932409565778768 
0.8160308384296105 
0.8699847988906374 
0.017942419653755343 
0.19682333604643196 
0.15651526490208878 
0.06523567372035569 
0.997585270641006 
0.0029944067178736093 
0.8705089129279001 
0.005501227928046568 
0.999310248914836 
0.006295229426444894 
0.450345194841376 
-1.809772807075491e-5 
0.9276352398546984 
0.9074174057764046 
0.986716717720457 
0.9868862329554676 
0.94302440064646 
0.3024775571108716 
0.7515025072382103 
0.9551651012806093 
0.6972228568453249 
1.0012884510438584 
0.012877202769200229 
0.30171868478955655 
0.11754839012120036 
0.0009497007699272285 
0.24607324857255847 
0.9486214597813207 
0.03505685937197314 
0.04843112557867731 
0.08182595673087559 
0.9856395776872394 
0.0014744640596262785 
7.134991641728227e-6 
0.015752655140630314 
0.009103986427578386 
0.0021379036477284868 
0.9820465770724834 
0.7018253235022476 
1.0002361632032182 
0.9946230330490616 
0.9948788750239191 
-7.582653938095019e-6 
7.95072146432683e-5 
0.37277110968975613 
0.5053331584117301 
0.010017388705295713 
0.7390196639050051 
1.001131384320499 
0.07963509610980475 
0.5346512213408795 
9.211623173286068e-5 
0.0001824142580516451 
7.066618866132348e-5 
0.016517715682215117 
-4.494285241511905e-5 
1.0006868876804527 
0.0019333460245105558 
0.6757891199478171 
0.1575663094224994 
0.01207797846491094 
0.17633865695061826 
0.17644883896155006 
0.0021062686016769657 
0.44821887505576413 
0.05202805602112333 
0.0010579859323845953 
0.12501257048096484 
0.02296976078855893 
1.0898724677179819e-5 
4.697641912875676e-5 
0.9989404334440715 
0.00010346982613451995 
0.07319859261113557 
0.850077604910189 
0.06462800143909711 
0.013908881513135768 
0.8793089827155065 
0.05703697157993102 
1.0818236644153871 
0.6911177045380923 
0.011623723925678288 
-8.145662541656564e-7 
1.9399185970039984e-5 
1.0053198127598155 
1.0015979644601465 
1.000627588665056 
0.00010005267032476016 
1.0002716938124108 
-1.3031511230915736e-5 
0.33438660776364404 
1.0081114900288197 
0.16832613053355536 
0.5841827605048552 
0.8981376866646523 
0.0007481912566955777 
1.0727565330847824 
0.004235516962604804 
0.00033700547010269926 
0.8487819405709827 
0.225740125072572 
0.42652464368538323 
0.10991309576448702 
0.1134029089104966 
0.002825472251114734 
0.04027667080545079 
0.00011447098112851283 
0.029705605872092967 
-8.65790250578429e-5 
0.22274811181613885 
0.9400134020596835 
0.023761468920238647 
0.9985015999978698 
0.008107429513512288 
0.860544801715026 
0.9981295777570227 
1.0151121594178665 
0.00014363771496789764 
0.1992440219397529 
0.0010089704947092441 
0.0013435842197841506 
0.18189864784707452 
0.03388465378339839 
0.5882641690325665 
0.0002600091669934559 
0.005348901710199017 
0.000258948546563848 
1.0001458413894644 
0.003640708680996209 
0.9818069332683752 
0.03380370684603055 
0.0002073794525987067 
0.00047590695574442247 
0.009022615983057708 
0.15286687105009006 
-2.096479039633048e-6 
0.6234950125983183 
0.009502887802496213 
1.001166731115875 
0.7234730170841069 
0.10882553178380376 
0.18285675781061453 
0.007384317630774929 
0.012849215360428734 
0.9724914343151909 
0.0018671565812951399 
3.853994430046737e-5 
0.39559234194232273 
1.0001244551660593 
0.016395563600904415 
0.7238483685650566 
0.9953513805268658 
1.000046715680217 
0.009040277428612688 
0.554840063610824 
1.204786530879156e-5 
0.0028950967519910387 
0.592438087827263 
0.00029771374869824393 
0.01314191686035628 
0.3057617868657991 
0.02506254047537054 
1.000455114632017 
4.6386603370680885e-5 
0.9181360265540123 
0.0707899107462541 
0.6809105507393473 
0.042747326981026804 
0.2500614523536652 
0.006430549971478899 
0.8060713297716253 
0.014208745625441069 
0.003016654349768007 
0.0016027129456733177 
3.0125617397575403e-5 
5.448604524705609e-5 
0.0023579879065196226 
0.8685344554266038 
0.7405389867182511 
0.007277295472725111 
0.0003249606920039538 
0.974744486066837 
0.03530130542432979 
0.19446305314570395 
1.0014723809092037 
0.0786754918660206 
1.0343071052346098 
0.999248870345839 
0.030883622746318024 
0.9414327864237677 
0.9936512328945384 
0.0015945109004276857 
0.968649859854143 
0.9962172472375074 
-1.150477030567679e-7 
1.035581099858941 
0.0015214208332991193 
0.25915029580112536 
0.9930919073051125 
0.31142983009508773 
0.9776902942905353 
0.09363886031476534 
0.028094484028990552 
0.3138029041209588 
0.8271595976381313 
0.005066781848859656 
-2.1955370672402924e-5 
0.9583881157235882 
0.00037765359792989704 
0.11066302427454178 
0.9921120205012662 
1.0035356773019006 
1.0815046635787975e-6 
2.2372051839202742e-5 
0.000320434266465498 
0.00132636129471535 
0.07545558387534271 
0.14120695669563807 
0.8429627548943192 
0.9166143715833162 
1.000236877503757 
0.16492143897812028 
0.44098640543248807 
0.178899415935857 
0.002036494920147796 
0.09062603408256469 
0.06384070291463977 
4.24927110265921e-6 
0.9966881008609118 
0.00787689327587215 
0.008108579549274908 
0.7138750452616993 
0.7670272123289308 
0.012566788332262784 
0.012796143822735286 
0.9536667635466712 
0.10669137488752176 
0.9977122617410713 
0.9266722800188839 
0.00805304165987593 
0.6197562470681014 
0.07753408383749881 
1.0000257169189675 
0.9959660790724078 
0.013501756488046772 
0.0008660609232561723 
0.9628731406547607 
0.00023721056248091844 
0.35121794864802935 
0.0043458378057216005 
0.028440902276826493 
0.02951054823771083 
0.921451637249459 
1.001211896907064 
0.36951637874869225 
0.00045566467418231576 
0.0037504289616018937 
0.9973813477806587 
0.11515983281026765 
1.433602257945284e-6 
1.0014541821946132 
0.9982697878727456 
0.016844272185298912 
0.005453427080011419 
0.7808592912743365 
1.0012489701238805 
0.5831907166326042 
0.002335274710340215 
0.7001820009086087 
0.4532498842853394 
0.602442043680148 
0.02631896638457341 
0.0975296302105958 
4.1462542785644275e-5 
1.2461626999533503e-7 
1.0185036557303386 
1.0539842392696768 
0.014782283269572658 
0.40263288457525437 
1.0081496719427907 
0.41338257873355 
0.9615653250678008 
0.04800741403536802 
1.000082538928581 
0.8262373352982904 
0.06227520675150872 
0.0016638098421369954 
-1.8636361507613232e-5 
-2.5572325905169684e-7 
6.0906617858896325e-6 
0.2169625844495785 
