# vtk DataFile Version 3.0 
Unstructured Grid 
ASCII 
DATASET UNSTRUCTURED_GRID
POINTS 437 float 
0.5 0 0  
1 0 0  
1 1 0  
0 1 0  
0 0.5 0  
0.5 0.5 0  
0.55 0 0  
0.6 0 0  
0.65 0 0  
0.7 0 0  
0.75 0 0  
0.8 0 0  
0.85 0 0  
0.9 0 0  
0.95 0 0  
1 0.05 0  
1 0.1 0  
1 0.15 0  
1 0.2 0  
1 0.25 0  
1 0.3 0  
1 0.35 0  
1 0.4 0  
1 0.45 0  
1 0.5 0  
1 0.55 0  
1 0.6 0  
1 0.65 0  
1 0.7 0  
1 0.75 0  
1 0.8 0  
1 0.85 0  
1 0.9 0  
1 0.95 0  
0.95 1 0  
0.9 1 0  
0.85 1 0  
0.8 1 0  
0.75 1 0  
0.7 1 0  
0.65 1 0  
0.6 1 0  
0.55 1 0  
0.5 1 0  
0.45 1 0  
0.4 1 0  
0.35 1 0  
0.3 1 0  
0.25 1 0  
0.2 1 0  
0.15 1 0  
0.1 1 0  
0.05 1 0  
0 0.95 0  
0 0.9 0  
0 0.85 0  
0 0.8 0  
0 0.75 0  
0 0.7 0  
0 0.65 0  
0 0.6 0  
0 0.55 0  
0.05 0.5 0  
0.1 0.5 0  
0.15 0.5 0  
0.2 0.5 0  
0.25 0.5 0  
0.3 0.5 0  
0.35 0.5 0  
0.4 0.5 0  
0.45 0.5 0  
0.5 0.45 0  
0.5 0.4 0  
0.5 0.35 0  
0.5 0.3 0  
0.5 0.25 0  
0.5 0.2 0  
0.5 0.15 0  
0.5 0.1 0  
0.5 0.05 0  
0.7067263 0.70899034 0  
0.7462131 0.3784907 0  
0.275 0.75 0  
0.49203128 0.7759238 0  
0.8004979 0.19051445 0  
0.8169689 0.5569046 0  
0.8379451 0.8232311 0  
0.6651841 0.5643974 0  
0.6586247 0.24525054 0  
0.39886913 0.6556846 0  
0.6357807 0.845222 0  
0.15416667 0.65416664 0  
0.15469871 0.8490102 0  
0.37710553 0.86057764 0  
0.8530772 0.68242943 0  
0.5399757 0.6405682 0  
0.87012184 0.30832314 0  
0.6218386 0.41301885 0  
0.8712292 0.43948308 0  
0.6270563 0.12650847 0  
0.2721758 0.6146517 0  
0.26237586 0.88543755 0  
0.5290535 0.8872315 0  
0.8881946 0.111421056 0  
0.59896 0.74404466 0  
0.73382306 0.10964348 0  
0.7398329 0.9080902 0  
0.7300285 0.48150903 0  
0.10457365 0.74805343 0  
0.5998279 0.32869247 0  
0.4013559 0.7541197 0  
0.8998196 0.8998196 0  
0.7425495 0.27230954 0  
0.90489763 0.5939467 0  
0.7320272 0.6158908 0  
0.90734863 0.2194375 0  
0.90656686 0.7697009 0  
0.74241894 0.80003285 0  
0.632743 0.65343165 0  
0.46277094 0.5961966 0  
0.08243797 0.5905297 0  
0.08731128 0.91282296 0  
0.44904137 0.91765434 0  
0.57323986 0.55955005 0  
0.91513485 0.5138866 0  
0.1836753 0.7418762 0  
0.5856236 0.20050126 0  
0.35569865 0.5818674 0  
0.4717501 0.69469833 0  
0.8203882 0.9111774 0  
0.19848472 0.58481354 0  
0.7232736 0.19122238 0  
0.6770922 0.32269323 0  
0.80834067 0.08196056 0  
0.9230353 0.37846187 0  
0.78589296 0.72803205 0  
0.18855475 0.91950625 0  
0.6022492 0.9193816 0  
0.07701049 0.6750049 0  
0.07779311 0.8285882 0  
0.33496442 0.69013095 0  
0.22651649 0.8130275 0  
0.33345127 0.9266774 0  
0.56306595 0.81706417 0  
0.79485846 0.43853834 0  
0.57445616 0.4795266 0  
0.30524647 0.8211264 0  
0.8098617 0.6293174 0  
0.66652167 0.7748195 0  
0.44695833 0.83554715 0  
0.58482915 0.07054804 0  
0.92909133 0.6757825 0  
0.82267326 0.3699049 0  
0.6750539 0.9307201 0  
0.6726681 0.069687515 0  
0.22284219 0.6692463 0  
0.9308683 0.2891792 0  
0.930985 0.8368545 0  
0.57183284 0.395735 0  
0.56719327 0.267426 0  
0.8295321 0.2563277 0  
0.702163 0.41558313 0  
0.6631986 0.48596716 0  
0.5332523 0.7285968 0  
0.9389338 0.15767792 0  
0.9392354 0.06812419 0  
0.74606097 0.5461627 0  
0.668234 0.16889203 0  
0.82325417 0.7682245 0  
0.86888987 0.49205798 0  
0.9373707 0.42941386 0  
0.27492446 0.5574591 0  
0.7591465 0.66997904 0  
0.5625162 0.14507365 0  
0.698026 0.84136397 0  
0.33979788 0.7690552 0  
0.4100188 0.5701878 0  
0.86549294 0.1689855 0  
0.15718786 0.7919015 0  
0.14695793 0.56156343 0  
0.49887148 0.9348564 0  
0.39005366 0.9400572 0  
0.2756479 0.94468254 0  
0.79987353 0.31934652 0  
0.79108334 0.48730215 0  
0.7893297 0.13692713 0  
0.8729007 0.040251754 0  
0.65027624 0.3686311 0  
0.94156647 0.94156647 0  
0.77622527 0.94636667 0  
0.6486954 0.7048788 0  
0.5761476 0.67128414 0  
0.77190053 0.83744544 0  
0.60624254 0.5986166 0  
0.7550012 0.06245598 0  
0.50134873 0.8411101 0  
0.68467325 0.64302444 0  
0.053087775 0.72582155 0  
0.139265 0.9408418 0  
0.95088 0.7243738 0  
0.9432815 0.5566516 0  
0.86394966 0.9434744 0  
0.6805639 0.11338498 0  
0.20661557 0.866214 0  
0.5136965 0.55900043 0  
0.61441326 0.79211885 0  
0.5533345 0.9442417 0  
0.86748934 0.5476702 0  
0.45131102 0.7447211 0  
0.9522712 0.6298776 0  
0.49115333 0.6454875 0  
0.57800794 0.87019897 0  
0.14164469 0.70855445 0  
0.38005453 0.7027296 0  
0.27368295 0.69533986 0  
0.049783085 0.62717026 0  
0.049414515 0.87215096 0  
0.62649876 0.043947894 0  
0.8786532 0.85014766 0  
0.34885973 0.6374005 0  
0.5949198 0.5178657 0  
0.86131465 0.63502216 0  
0.79260343 0.80256337 0  
0.7014114 0.5166631 0  
0.40068594 0.814811 0  
0.55082065 0.3157755 0  
0.6816506 0.59935296 0  
0.3207115 0.869895 0  
0.05274013 0.55274016 0  
0.05274013 0.94725984 0  
0.6400825 0.29462123 0  
0.70826656 0.24477807 0  
0.7619463 0.22610597 0  
0.052983053 0.7814943 0  
0.7439376 0.3234126 0  
0.95078784 0.88415176 0  
0.9592077 0.22841401 0  
0.84777594 0.1277937 0  
0.9565159 0.32835326 0  
0.87450755 0.38491434 0  
0.8723333 0.26038516 0  
0.2202579 0.9566307 0  
0.5511588 0.44135624 0  
0.89094824 0.71469563 0  
0.14088513 0.8952839 0  
0.9426072 0.110777475 0  
0.5598569 0.76635987 0  
0.7797588 0.58802515 0  
0.73662144 0.7500704 0  
0.80291736 0.6806566 0  
0.3250526 0.545103 0  
0.47699997 0.87967384 0  
0.109880045 0.6315259 0  
0.9565706 0.4731244 0  
0.9520049 0.7877815 0  
0.41847795 0.61317724 0  
0.7469016 0.43319932 0  
0.6651573 0.8785795 0  
0.6980314 0.36945662 0  
0.22855084 0.7651636 0  
0.5426688 0.22467211 0  
0.85128033 0.20839585 0  
0.6080812 0.24411796 0  
0.22691919 0.54427826 0  
0.42439926 0.70143026 0  
0.87087065 0.7973803 0  
0.71672744 0.95107883 0  
0.83949435 0.5922577 0  
0.34957552 0.8123493 0  
0.51278394 0.6086165 0  
0.15431206 0.6098422 0  
0.6343587 0.9556687 0  
0.8392547 0.8737899 0  
0.7109742 0.042080052 0  
0.23100297 0.62427217 0  
0.5484106 0.51544434 0  
0.42224586 0.8707757 0  
0.10496536 0.8650706 0  
0.11225842 0.7941315 0  
0.429402 0.95576584 0  
0.46295157 0.54450357 0  
0.10164671 0.5457688 0  
0.5822864 0.63314605 0  
0.37762833 0.53745234 0  
0.8275239 0.04005421 0  
0.8323437 0.41491747 0  
0.44464156 0.7891728 0  
0.90912354 0.4597161 0  
0.26412204 0.8401569 0  
0.26712763 0.7957094 0  
0.62024623 0.47111306 0  
0.7770051 0.8863074 0  
0.8221126 0.9602037 0  
0.5225849 0.68752897 0  
0.76535124 0.17708147 0  
0.31416538 0.59776855 0  
0.53816175 0.1840494 0  
0.6130816 0.16364412 0  
0.7091263 0.2886451 0  
0.22773811 0.71831167 0  
0.9012153 0.33257928 0  
0.18447237 0.53813106 0  
0.18472914 0.6879896 0  
0.82954866 0.46472684 0  
0.17961553 0.9633957 0  
0.36685705 0.9008585 0  
0.44457012 0.65111244 0  
0.8385268 0.7209097 0  
0.7115207 0.14475605 0  
0.09503517 0.95690435 0  
0.7880896 0.39571288 0  
0.96492094 0.38520482 0  
0.5563232 0.6018296 0  
0.31393582 0.73382735 0  
0.49519077 0.7332941 0  
0.9629974 0.5187325 0  
0.5415193 0.100338124 0  
0.9036664 0.6412981 0  
0.3244769 0.96671104 0  
0.2306904 0.9144942 0  
0.035453074 0.6754281 0  
0.035497267 0.82603335 0  
0.18655832 0.81865835 0  
0.54264426 0.042344484 0  
0.70526683 0.56849337 0  
0.5891552 0.9625355 0  
0.09987184 0.7080552 0  
0.6646015 0.4450029 0  
0.62016 0.87781084 0  
0.68724763 0.7468739 0  
0.6794575 0.21179324 0  
0.66522187 0.8161647 0  
0.5348051 0.47726545 0  
0.77173877 0.09966874 0  
0.30060795 0.6489708 0  
0.5900102 0.4408019 0  
0.6355171 0.20569986 0  
0.19041659 0.6358006 0  
0.7817328 0.35663295 0  
0.85770756 0.080021024 0  
0.90471005 0.95934963 0  
0.53831446 0.36966592 0  
0.24070142 0.5850949 0  
0.63882816 0.744377 0  
0.6058876 0.3669202 0  
0.9048971 0.4124307 0  
0.5905425 0.11210937 0  
0.6993429 0.7882209 0  
0.5656613 0.9052634 0  
0.7704826 0.63249016 0  
0.8522724 0.33958897 0  
0.296919 0.9075354 0  
0.9667555 0.83175755 0  
0.5987462 0.28922248 0  
0.11813834 0.6749375 0  
0.38161784 0.6131642 0  
0.6618531 0.40398476 0  
0.6370484 0.08659111 0  
0.038074076 0.5894313 0  
0.038074076 0.9105687 0  
0.96839094 0.6753669 0  
0.14384495 0.75045496 0  
0.5411818 0.84978336 0  
0.52673554 0.8019128 0  
0.7657028 0.46494102 0  
0.961649 0.03835645 0  
0.675 0.030283678 0  
0.7518289 0.70853835 0  
0.96001375 0.18740793 0  
0.9678583 0.27471802 0  
0.67516285 0.9681792 0  
0.59831095 0.83401567 0  
0.9073243 0.5525552 0  
0.8611736 0.90393615 0  
0.5795172 0.033180732 0  
0.5208923 0.96885955 0  
0.47072348 0.967185 0  
0.6462471 0.6071309 0  
0.52937275 0.275 0  
0.26006237 0.6504962 0  
0.73740774 0.8595233 0  
0.8331797 0.2957258 0  
0.47728643 0.80960673 0  
0.9208824 0.037562877 0  
0.9040851 0.18120942 0  
0.70257896 0.8997159 0  
0.97050655 0.074435726 0  
0.36017016 0.7398202 0  
0.7106061 0.0794504 0  
0.63714504 0.33196637 0  
0.890113 0.67338765 0  
0.17423429 0.88494647 0  
0.70125586 0.4576201 0  
0.9066001 0.8085411 0  
0.71885514 0.6719225 0  
0.36035147 0.9661565 0  
0.42251006 0.5290217 0  
0.9723008 0.4259288 0  
0.64294964 0.51980066 0  
0.78817964 0.03501066 0  
0.570402 0.7144006 0  
0.12055232 0.8290842 0  
0.19649777 0.7861254 0  
0.67484623 0.27905807 0  
0.36568695 0.6714864 0  
0.97151566 0.9645467 0  
0.8305832 0.16528471 0  
0.7877058 0.2744767 0  
0.4071035 0.9074601 0  
0.8660333 0.7541822 0  
0.75281197 0.5088334 0  
0.80377316 0.22890417 0  
0.7842619 0.53388166 0  
0.80658257 0.8577738 0  
0.8967399 0.28827333 0  
0.82637364 0.5137572 0  
0.9234294 0.25649244 0  
0.30519488 0.78316474 0  
0.8318979 0.6562427 0  
0.121106885 0.5892234 0  
0.97378284 0.925 0  
0.903588 0.07469306 0  
0.5322612 0.41135144 0  
0.63939583 0.91243213 0  
0.6109627 0.7054028 0  
0.57147133 0.35136378 0  
0.6785297 0.6806924 0  
0.90144104 0.14535177 0  
0.7748313 0.76722825 0  
0.7498974 0.14247963 0  
0.61986715 0.56109023 0  
0.36870277 0.77900666 0  
0.9640754 0.59000534 0  
0.9105131 0.86591715 0  
0.027604798 0.5276048 0  
0.027604798 0.9723952 0  
0.5214134 0.7612175 0  
CELLS 792 3168 
3 407 234 112 
3 413 222 86 
3 183 234 407 
3 108 278 233 
3 97 158 344 
3 124 207 169 
[...]
POINT_DATA 437 
SCALARS T float 
LOOKUP_TABLE default 
0.5000000000012899 
0.5000000000016751 
-2.2491318558532565e-20 
2.424438940301811e-19 
-4.718973086497219e-21 
6.594289627460276e-12 
0.9999999999996504 
1.0000000000000075 
1.0000000000000024 
0.9999999999999991 
0.9999999999999928 
0.999999999999993 
1.000000000000015 
1.0000000000000302 
0.9999999999995309 
4.592379525563071e-12 
2.3092766127940967e-12 
9.852654864510069e-13 
7.076385906890808e-13 
3.626887483957517e-13 
1.3056823338481375e-13 
6.19006525217183e-14 
3.689453548286029e-14 
-1.3735091402946651e-14 
9.322215976462891e-15 
-3.210722381551047e-14 
-6.6382647250340715e-15 
-2.2583261424225264e-15 
1.575931563379039e-16 
4.916863987097837e-16 
2.0201676632112884e-16 
4.010195453207659e-17 
1.9810969582835568e-17 
-1.797931661282019e-18 
-7.415172342402971e-18 
-6.6199368400501455e-18 
-1.0719108652699542e-16 
7.651238522145469e-17 
-5.0745185369053675e-17 
3.291753859410928e-15 
6.385332549009746e-15 
1.0130281503603652e-14 
1.1835841490188539e-14 
1.0522624481496876e-14 
7.747137182854947e-15 
5.3667033489107594e-15 
2.2628096005859918e-15 
1.2751657620258052e-15 
2.763582998596538e-16 
8.198756848164391e-17 
3.8782678925573755e-17 
3.11752202186617e-19 
2.626169763832453e-19 
1.222389732809793e-18 
2.6169005672427983e-18 
5.923390226426988e-18 
8.771568973173224e-18 
7.636609108905795e-18 
4.868131436142634e-18 
4.586082011149908e-19 
-7.546776140591454e-19 
-9.576459100242904e-20 
5.123748679176349e-19 
2.839330786464358e-19 
-4.753085489570323e-19 
-1.2109021066978055e-17 
-2.2290852877225803e-16 
-3.4546280132896077e-16 
-1.640091880988102e-15 
1.5575943597049348e-15 
-1.0294569999099907e-13 
8.237602026258019e-12 
7.492648542881614e-12 
6.927584954835075e-12 
6.43209762047973e-12 
5.100614698485114e-12 
4.203275436477272e-12 
4.172202657564833e-12 
3.0991123288291687e-12 
4.576987062263047e-12 
0.1815912794067754 
0.9817026111147833 
0.0028262714803801514 
0.052087053313362205 
1.0007217616847393 
0.35037052143850694 
0.0010786239014981378 
0.6839865638038556 
0.9948171551771983 
0.060897861604598626 
0.02379648697856326 
5.4565123986354377e-5 
3.7564679542403496e-5 
0.003794207527554953 
0.031094275346242577 
0.30074123292446975 
0.8068540294089129 
0.9395678090055897 
0.4391048347257716 
0.996880297217262 
0.0014191141024653018 
0.000300065754063321 
0.009535412109381499 
1.00749446500847 
0.13777938632115183 
1.0002211588778789 
0.001277781208651664 
0.8610329095707354 
1.974393271544973e-5 
0.9557981256950712 
0.025756316267852863 
-3.272453779305979e-6 
0.9998739870478949 
0.029731293166794914 
0.4255993840925348 
0.8268792888267421 
0.00048736128508830747 
0.024854831215608508 
0.37775691719038595 
0.19443501976631358 
-1.787828576843404e-7 
1.43448997854206e-6 
0.003118188173993769 
0.5862199572448029 
0.08245976394711951 
0.00027864536827194966 
0.9746465140661723 
0.00962111147500565 
0.11227816034498347 
6.768634932664786e-5 
1.6513010540311692e-5 
0.9994955655726827 
0.9962795958587847 
0.9972402933768434 
0.27873800396953385 
0.05620859909579121 
2.6416356347913582e-5 
0.004230602546347188 
3.2370629887265157e-6 
4.2793271280762575e-6 
0.015770882955196092 
0.0004401994853955487 
0.0005594344137691646 
0.04135270186538636 
0.8103475004476027 
0.7399190249866555 
0.0022294937105987746 
0.1759654387558299 
0.08288280265114573 
0.014260310312291895 
0.9975936370749863 
0.0027165109126722074 
0.869721049336326 
0.0017323250912157332 
0.9993126326814344 
0.0007729356602512382 
0.4503348335842715 
-1.2891957102947458e-5 
0.8743048123996365 
0.9038749346056716 
0.9867053430858266 
0.969433027071052 
0.8703292463007688 
0.12587269422291822 
0.7514999608205325 
0.9551648257871209 
0.6470189692028067 
1.0012643505844354 
0.00917806058786462 
0.29948600302172546 
0.11750684875205045 
9.814983129778369e-5 
0.19722835222989835 
0.9484689741278173 
0.016023857874330926 
0.008599418681322512 
0.03225781989122559 
0.9856385458484909 
8.686244694468137e-5 
-2.2459532903563666e-6 
0.0029567312878332097 
0.0010899725762431134 
0.00014232772836002787 
0.9817887947916111 
0.6890043020963229 
1.0002557440913422 
0.9946225344456536 
0.9800354012440323 
-2.29476295679841e-6 
7.0229909991772116e-6 
0.22674041758921665 
0.2794157894495528 
0.0054136481814787175 
0.5249899562561829 
1.0011339896600495 
0.020899058077240608 
0.40263661322446803 
2.3485505026957966e-6 
5.118231956238527e-6 
5.6574770934872145e-5 
0.01629468011531076 
-1.7721952315908672e-5 
1.000692903225368 
0.0001116316518852882 
0.4317679881091203 
0.0688228638341314 
0.0025727659870062075 
0.17264187744781698 
0.05263732672534385 
0.0020011871048725436 
0.21053152939273148 
0.016036047096993678 
6.555762918884665e-5 
0.03314588514126657 
0.00375168761207565 
-1.095822325190021e-7 
7.609832035486196e-7 
0.9989441557003025 
4.557211736880239e-5 
0.02040945399861847 
0.6987730108753821 
0.060040201477188485 
0.008887436028669645 
0.8139934605338506 
0.010859490139220438 
1.0524123645777241 
0.559190980502707 
0.00124559581237328 
-5.9961230927768e-8 
2.669619656590833e-7 
1.001487955164187 
1.0014496523710696 
1.0006723493923368 
2.2829010272651355e-6 
0.9996985128174622 
-6.044230531426869e-6 
0.33439128291090925 
1.008107175529528 
0.1683401588591225 
0.5839851336290025 
0.8981481122106857 
3.656117788485937e-5 
0.9225811629103651 
0.003564017224500453 
1.1394738463113074e-5 
0.8487816342493517 
0.09090965946706554 
0.3918342986167718 
0.07129120634957624 
0.0940120923947801 
0.0006171193802105801 
0.008465498972677704 
3.401468497269718e-6 
0.029588479915723102 
-6.286367881801301e-5 
0.0929071915662194 
0.9292698065368349 
0.008971990535404909 
0.9914755328390965 
0.0008322440644869556 
0.8577828748325204 
0.9981192576872363 
1.0124044633957747 
2.0498451385716044e-6 
0.062378542326615716 
0.0006629620549035764 
0.00041436699333238623 
0.1729013080506311 
0.005223862015304611 
0.3277139130152515 
1.1590925657410749e-5 
0.0013550761985939067 
0.00011198515275141574 
1.000147110020101 
0.0004540286800918029 
0.7374737642119781 
0.00593613274455905 
6.126506632156366e-6 
1.9972542928338058e-5 
0.0011834025647571899 
0.081851287554222 
-3.712315812347785e-7 
0.38847275313733015 
0.0031876980054883143 
1.0011684343070948 
0.7220006841989621 
0.027180140782562437 
0.18251244334972536 
0.0006796480697852095 
0.0014385556927821832 
0.8724329900281769 
0.0008245652150776501 
1.0107779055017998e-5 
0.1789063228952036 
1.0000932126231035 
0.0036643675555171865 
0.7233617064325735 
0.9951896323107814 
0.9991853182621512 
0.0010629048890816802 
0.5548259084686027 
-2.554488698271405e-6 
0.00026326908964021404 
0.5881863657592296 
1.1155225381517705e-5 
0.0016488595251928843 
0.12186907805419846 
0.020484427705050212 
1.0004606383563341 
9.427156779041585e-7 
0.915834226085989 
0.07078074800827937 
0.42985301975992735 
0.007601208969158184 
0.09041704017689133 
0.006299696803300234 
0.8060804429531119 
0.013357545800624262 
0.000251564235472828 
9.194515820169342e-5 
4.760437024503431e-7 
9.832644858533059e-7 
0.00015715079310464584 
0.8685513196478991 
0.6477654180954064 
0.0015201637044038503 
1.416270831609609e-5 
0.9316641902001392 
0.011835780362713738 
0.11711133001095582 
1.0012442145439107 
0.036686473172666406 
0.8180008750981818 
0.9992498234093629 
0.006497951206300743 
0.8536500694364949 
0.9936786767530309 
0.00014499802161635803 
0.9673094391520932 
0.9962199930224069 
-6.316966271414105e-7 
0.9645601715404567 
0.0001630648606053248 
0.13838468954596228 
0.9626867887125693 
0.31123559160244013 
0.9777545246402854 
0.05072022748505982 
0.007548081415243414 
0.26990551004548713 
0.8270663327007011 
0.0004365805972646415 
-1.5266141688396617e-5 
0.9541763402224641 
1.8118947253526508e-5 
0.038767526580863576 
0.9660986322058978 
1.0035222761791442 
-6.652623093545327e-8 
2.623680015044097e-7 
0.0002795989341520314 
8.385372683562875e-5 
0.0220730804630303 
0.04575563485962491 
0.8285969289187226 
0.9166142464226982 
1.0002368645452522 
0.12105651991194678 
0.44098957805529176 
0.17889911194166036 
0.000527834402557801 
0.03373993219672323 
0.06272246733347735 
-6.58252544291963e-7 
0.9966928171173857 
0.0013943538595525794 
0.001197428688236749 
0.5379312293029245 
0.7579393962886666 
0.002070071574117802 
0.006099895944479875 
0.9535808062228661 
0.028526068301607102 
0.9977122722669247 
0.9266752490146871 
0.0030477308159259802 
0.6197560056556969 
0.01654809664666273 
1.0000287947183242 
0.9874616526538851 
0.012037358926244532 
4.0067323930358666e-5 
0.9282250741897358 
0.00015263983148551088 
0.26501363362622843 
0.00043863150808056615 
0.013240625854964095 
0.029536306691263305 
0.7973740770024148 
1.0012143887280407 
0.17884014099044263 
1.781773918608942e-5 
0.00030009197234541664 
0.9961991985476301 
0.03282604363927753 
2.883375916373545e-7 
1.0014645853972175 
0.9981118796188082 
0.002494685726669313 
0.004228126898977773 
0.7494413857610231 
1.001236453802823 
0.5586085546339642 
0.0012271096032797973 
0.7001781859533354 
0.44495850235998835 
0.6024409127375665 
0.003761158665066495 
0.08591842465787636 
3.309631523388903e-7 
-2.3676293313185474e-7 
1.0185027030212706 
0.9239585303455136 
0.004680014672107767 
0.223824540338314 
0.9703060135857023 
0.28531972113411297 
0.9615651963945601 
0.03229015907254432 
1.0000908582091788 
0.6507170897717162 
0.01210676773379172 
0.001661943036316759 
-1.1784837271345443e-5 
-7.134644657645628e-9 
6.527646566913894e-8 
0.07884310346957511 
