# vtk DataFile Version 3.0 
Unstructured Grid 
ASCII 
DATASET UNSTRUCTURED_GRID
POINTS 437 float 
0.5 0 0  
1 0 0  
1 1 0  
0 1 0  
0 0.5 0  
0.5 0.5 0  
0.55 0 0  
0.6 0 0  
0.65 0 0  
0.7 0 0  
0.75 0 0  
0.8 0 0  
0.85 0 0  
0.9 0 0  
0.95 0 0  
1 0.05 0  
1 0.1 0  
1 0.15 0  
1 0.2 0  
1 0.25 0  
1 0.3 0  
1 0.35 0  
1 0.4 0  
1 0.45 0  
1 0.5 0  
1 0.55 0  
1 0.6 0  
1 0.65 0  
1 0.7 0  
1 0.75 0  
1 0.8 0  
1 0.85 0  
1 0.9 0  
1 0.95 0  
0.95 1 0  
0.9 1 0  
0.85 1 0  
0.8 1 0  
0.75 1 0  
0.7 1 0  
0.65 1 0  
0.6 1 0  
0.55 1 0  
0.5 1 0  
0.45 1 0  
0.4 1 0  
0.35 1 0  
0.3 1 0  
0.25 1 0  
0.2 1 0  
0.15 1 0  
0.1 1 0  
0.05 1 0  
0 0.95 0  
0 0.9 0  
0 0.85 0  
0 0.8 0  
0 0.75 0  
0 0.7 0  
0 0.65 0  
0 0.6 0  
0 0.55 0  
0.05 0.5 0  
0.1 0.5 0  
0.15 0.5 0  
0.2 0.5 0  
0.25 0.5 0  
0.3 0.5 0  
0.35 0.5 0  
0.4 0.5 0  
0.45 0.5 0  
0.5 0.45 0  
0.5 0.4 0  
0.5 0.35 0  
0.5 0.3 0  
0.5 0.25 0  
0.5 0.2 0  
0.5 0.15 0  
0.5 0.1 0  
0.5 0.05 0  
0.7067263 0.70899034 0  
0.7462131 0.3784907 0  
0.275 0.75 0  
0.49203128 0.7759238 0  
0.8004979 0.19051445 0  
0.8169689 0.5569046 0  
0.8379451 0.8232311 0  
0.6651841 0.5643974 0  
0.6586247 0.24525054 0  
0.39886913 0.6556846 0  
0.6357807 0.845222 0  
0.15416667 0.65416664 0  
0.15469871 0.8490102 0  
0.37710553 0.86057764 0  
0.8530772 0.68242943 0  
0.5399757 0.6405682 0  
0.87012184 0.30832314 0  
0.6218386 0.41301885 0  
0.8712292 0.43948308 0  
0.6270563 0.12650847 0  
0.2721758 0.6146517 0  
0.26237586 0.88543755 0  
0.5290535 0.8872315 0  
0.8881946 0.111421056 0  
0.59896 0.74404466 0  
0.73382306 0.10964348 0  
0.7398329 0.9080902 0  
0.7300285 0.48150903 0  
0.10457365 0.74805343 0  
0.5998279 0.32869247 0  
0.4013559 0.7541197 0  
0.8998196 0.8998196 0  
0.7425495 0.27230954 0  
0.90489763 0.5939467 0  
0.7320272 0.6158908 0  
0.90734863 0.2194375 0  
0.90656686 0.7697009 0  
0.74241894 0.80003285 0  
0.632743 0.65343165 0  
0.46277094 0.5961966 0  
0.08243797 0.5905297 0  
0.08731128 0.91282296 0  
0.44904137 0.91765434 0  
0.57323986 0.55955005 0  
0.91513485 0.5138866 0  
0.1836753 0.7418762 0  
0.5856236 0.20050126 0  
0.35569865 0.5818674 0  
0.4717501 0.69469833 0  
0.8203882 0.9111774 0  
0.19848472 0.58481354 0  
0.7232736 0.19122238 0  
0.6770922 0.32269323 0  
0.80834067 0.08196056 0  
0.9230353 0.37846187 0  
0.78589296 0.72803205 0  
0.18855475 0.91950625 0  
0.6022492 0.9193816 0  
0.07701049 0.6750049 0  
0.07779311 0.8285882 0  
0.33496442 0.69013095 0  
0.22651649 0.8130275 0  
0.33345127 0.9266774 0  
0.56306595 0.81706417 0  
0.79485846 0.43853834 0  
0.57445616 0.4795266 0  
0.30524647 0.8211264 0  
0.8098617 0.6293174 0  
0.66652167 0.7748195 0  
0.44695833 0.83554715 0  
0.58482915 0.07054804 0  
0.92909133 0.6757825 0  
0.82267326 0.3699049 0  
0.6750539 0.9307201 0  
0.6726681 0.069687515 0  
0.22284219 0.6692463 0  
0.9308683 0.2891792 0  
0.930985 0.8368545 0  
0.57183284 0.395735 0  
0.56719327 0.267426 0  
0.8295321 0.2563277 0  
0.702163 0.41558313 0  
0.6631986 0.48596716 0  
0.5332523 0.7285968 0  
0.9389338 0.15767792 0  
0.9392354 0.06812419 0  
0.74606097 0.5461627 0  
0.668234 0.16889203 0  
0.82325417 0.7682245 0  
0.86888987 0.49205798 0  
0.9373707 0.42941386 0  
0.27492446 0.5574591 0  
0.7591465 0.66997904 0  
0.5625162 0.14507365 0  
0.698026 0.84136397 0  
0.33979788 0.7690552 0  
0.4100188 0.5701878 0  
0.86549294 0.1689855 0  
0.15718786 0.7919015 0  
0.14695793 0.56156343 0  
0.49887148 0.9348564 0  
0.39005366 0.9400572 0  
0.2756479 0.94468254 0  
0.79987353 0.31934652 0  
0.79108334 0.48730215 0  
0.7893297 0.13692713 0  
0.8729007 0.040251754 0  
0.65027624 0.3686311 0  
0.94156647 0.94156647 0  
0.77622527 0.94636667 0  
0.6486954 0.7048788 0  
0.5761476 0.67128414 0  
0.77190053 0.83744544 0  
0.60624254 0.5986166 0  
0.7550012 0.06245598 0  
0.50134873 0.8411101 0  
0.68467325 0.64302444 0  
0.053087775 0.72582155 0  
0.139265 0.9408418 0  
0.95088 0.7243738 0  
0.9432815 0.5566516 0  
0.86394966 0.9434744 0  
0.6805639 0.11338498 0  
0.20661557 0.866214 0  
0.5136965 0.55900043 0  
0.61441326 0.79211885 0  
0.5533345 0.9442417 0  
0.86748934 0.5476702 0  
0.45131102 0.7447211 0  
0.9522712 0.6298776 0  
0.49115333 0.6454875 0  
0.57800794 0.87019897 0  
0.14164469 0.70855445 0  
0.38005453 0.7027296 0  
0.27368295 0.69533986 0  
0.049783085 0.62717026 0  
0.049414515 0.87215096 0  
0.62649876 0.043947894 0  
0.8786532 0.85014766 0  
0.34885973 0.6374005 0  
0.5949198 0.5178657 0  
0.86131465 0.63502216 0  
0.79260343 0.80256337 0  
0.7014114 0.5166631 0  
0.40068594 0.814811 0  
0.55082065 0.3157755 0  
0.6816506 0.59935296 0  
0.3207115 0.869895 0  
0.05274013 0.55274016 0  
0.05274013 0.94725984 0  
0.6400825 0.29462123 0  
0.70826656 0.24477807 0  
0.7619463 0.22610597 0  
0.052983053 0.7814943 0  
0.7439376 0.3234126 0  
0.95078784 0.88415176 0  
0.9592077 0.22841401 0  
0.84777594 0.1277937 0  
0.9565159 0.32835326 0  
0.87450755 0.38491434 0  
0.8723333 0.26038516 0  
0.2202579 0.9566307 0  
0.5511588 0.44135624 0  
0.89094824 0.71469563 0  
0.14088513 0.8952839 0  
0.9426072 0.110777475 0  
0.5598569 0.76635987 0  
0.7797588 0.58802515 0  
0.73662144 0.7500704 0  
0.80291736 0.6806566 0  
0.3250526 0.545103 0  
0.47699997 0.87967384 0  
0.109880045 0.6315259 0  
0.9565706 0.4731244 0  
0.9520049 0.7877815 0  
0.41847795 0.61317724 0  
0.7469016 0.43319932 0  
0.6651573 0.8785795 0  
0.6980314 0.36945662 0  
0.22855084 0.7651636 0  
0.5426688 0.22467211 0  
0.85128033 0.20839585 0  
0.6080812 0.24411796 0  
0.22691919 0.54427826 0  
0.42439926 0.70143026 0  
0.87087065 0.7973803 0  
0.71672744 0.95107883 0  
0.83949435 0.5922577 0  
0.34957552 0.8123493 0  
0.51278394 0.6086165 0  
0.15431206 0.6098422 0  
0.6343587 0.9556687 0  
0.8392547 0.8737899 0  
0.7109742 0.042080052 0  
0.23100297 0.62427217 0  
0.5484106 0.51544434 0  
0.42224586 0.8707757 0  
0.10496536 0.8650706 0  
0.11225842 0.7941315 0  
0.429402 0.95576584 0  
0.46295157 0.54450357 0  
0.10164671 0.5457688 0  
0.5822864 0.63314605 0  
0.37762833 0.53745234 0  
0.8275239 0.04005421 0  
0.8323437 0.41491747 0  
0.44464156 0.7891728 0  
0.90912354 0.4597161 0  
0.26412204 0.8401569 0  
0.26712763 0.7957094 0  
0.62024623 0.47111306 0  
0.7770051 0.8863074 0  
0.8221126 0.9602037 0  
0.5225849 0.68752897 0  
0.76535124 0.17708147 0  
0.31416538 0.59776855 0  
0.53816175 0.1840494 0  
0.6130816 0.16364412 0  
0.7091263 0.2886451 0  
0.22773811 0.71831167 0  
0.9012153 0.33257928 0  
0.18447237 0.53813106 0  
0.18472914 0.6879896 0  
0.82954866 0.46472684 0  
0.17961553 0.9633957 0  
0.36685705 0.9008585 0  
0.44457012 0.65111244 0  
0.8385268 0.7209097 0  
0.7115207 0.14475605 0  
0.09503517 0.95690435 0  
0.7880896 0.39571288 0  
0.96492094 0.38520482 0  
0.5563232 0.6018296 0  
0.31393582 0.73382735 0  
0.49519077 0.7332941 0  
0.9629974 0.5187325 0  
0.5415193 0.100338124 0  
0.9036664 0.6412981 0  
0.3244769 0.96671104 0  
0.2306904 0.9144942 0  
0.035453074 0.6754281 0  
0.035497267 0.82603335 0  
0.18655832 0.81865835 0  
0.54264426 0.042344484 0  
0.70526683 0.56849337 0  
0.5891552 0.9625355 0  
0.09987184 0.7080552 0  
0.6646015 0.4450029 0  
0.62016 0.87781084 0  
0.68724763 0.7468739 0  
0.6794575 0.21179324 0  
0.66522187 0.8161647 0  
0.5348051 0.47726545 0  
0.77173877 0.09966874 0  
0.30060795 0.6489708 0  
0.5900102 0.4408019 0  
0.6355171 0.20569986 0  
0.19041659 0.6358006 0  
0.7817328 0.35663295 0  
0.85770756 0.080021024 0  
0.90471005 0.95934963 0  
0.53831446 0.36966592 0  
0.24070142 0.5850949 0  
0.63882816 0.744377 0  
0.6058876 0.3669202 0  
0.9048971 0.4124307 0  
0.5905425 0.11210937 0  
0.6993429 0.7882209 0  
0.5656613 0.9052634 0  
0.7704826 0.63249016 0  
0.8522724 0.33958897 0  
0.296919 0.9075354 0  
0.9667555 0.83175755 0  
0.5987462 0.28922248 0  
0.11813834 0.6749375 0  
0.38161784 0.6131642 0  
0.6618531 0.40398476 0  
0.6370484 0.08659111 0  
0.038074076 0.5894313 0  
0.038074076 0.9105687 0  
0.96839094 0.6753669 0  
0.14384495 0.75045496 0  
0.5411818 0.84978336 0  
0.52673554 0.8019128 0  
0.7657028 0.46494102 0  
0.961649 0.03835645 0  
0.675 0.030283678 0  
0.7518289 0.70853835 0  
0.96001375 0.18740793 0  
0.9678583 0.27471802 0  
0.67516285 0.9681792 0  
0.59831095 0.83401567 0  
0.9073243 0.5525552 0  
0.8611736 0.90393615 0  
0.5795172 0.033180732 0  
0.5208923 0.96885955 0  
0.47072348 0.967185 0  
0.6462471 0.6071309 0  
0.52937275 0.275 0  
0.26006237 0.6504962 0  
0.73740774 0.8595233 0  
0.8331797 0.2957258 0  
0.47728643 0.80960673 0  
0.9208824 0.037562877 0  
0.9040851 0.18120942 0  
0.70257896 0.8997159 0  
0.97050655 0.074435726 0  
0.36017016 0.7398202 0  
0.7106061 0.0794504 0  
0.63714504 0.33196637 0  
0.890113 0.67338765 0  
0.17423429 0.88494647 0  
0.70125586 0.4576201 0  
0.9066001 0.8085411 0  
0.71885514 0.6719225 0  
0.36035147 0.9661565 0  
0.42251006 0.5290217 0  
0.9723008 0.4259288 0  
0.64294964 0.51980066 0  
0.78817964 0.03501066 0  
0.570402 0.7144006 0  
0.12055232 0.8290842 0  
0.19649777 0.7861254 0  
0.67484623 0.27905807 0  
0.36568695 0.6714864 0  
0.97151566 0.9645467 0  
0.8305832 0.16528471 0  
0.7877058 0.2744767 0  
0.4071035 0.9074601 0  
0.8660333 0.7541822 0  
0.75281197 0.5088334 0  
0.80377316 0.22890417 0  
0.7842619 0.53388166 0  
0.80658257 0.8577738 0  
0.8967399 0.28827333 0  
0.82637364 0.5137572 0  
0.9234294 0.25649244 0  
0.30519488 0.78316474 0  
0.8318979 0.6562427 0  
0.121106885 0.5892234 0  
0.97378284 0.925 0  
0.903588 0.07469306 0  
0.5322612 0.41135144 0  
0.63939583 0.91243213 0  
0.6109627 0.7054028 0  
0.57147133 0.35136378 0  
0.6785297 0.6806924 0  
0.90144104 0.14535177 0  
0.7748313 0.76722825 0  
0.7498974 0.14247963 0  
0.61986715 0.56109023 0  
0.36870277 0.77900666 0  
0.9640754 0.59000534 0  
0.9105131 0.86591715 0  
0.027604798 0.5276048 0  
0.027604798 0.9723952 0  
0.5214134 0.7612175 0  
CELLS 792 3168 
3 407 234 112 
3 413 222 86 
3 183 234 407 
3 108 278 233 
3 97 158 344 
3 124 207 169 
[...]
POINT_DATA 437 
SCALARS T float 
LOOKUP_TABLE default 
0.5000000000012899 
0.5000000000016751 
5.983062696823936e-18 
2.2195310420814753e-12 
3.666352255088502e-14 
1.0281817741464128e-11 
0.9999999999996504 
1.0000000000000078 
1.0000000000000027 
0.9999999999999991 
0.999999999999993 
0.9999999999999931 
1.0000000000000153 
1.0000000000000302 
0.9999999999995309 
4.592379065169993e-12 
2.3092816737678993e-12 
9.85275983872006e-13 
7.07610820218971e-13 
3.626997336145583e-13 
1.3050848894872198e-13 
6.180315965308396e-14 
3.703373292385975e-14 
-1.4182421714876786e-14 
9.083070307135318e-15 
-3.164007534740751e-14 
-7.032619072818423e-15 
-2.256555156566944e-15 
1.9459947754830478e-16 
8.130039164682518e-16 
2.838966068014672e-16 
1.634519613305296e-16 
5.515846011400679e-17 
-2.4094815986884923e-17 
-6.844077122360435e-17 
-2.03722191260749e-17 
-5.484199663237375e-16 
1.8314991454652367e-15 
8.703288773439996e-15 
4.837143832864588e-14 
1.4513612485974728e-13 
3.2766354022554766e-13 
6.566248071175369e-13 
9.96642661501081e-13 
1.4659298139655222e-12 
1.9989214244150514e-12 
2.04268698094265e-12 
2.8304691624161717e-12 
2.238666431948777e-12 
2.329794100455242e-12 
2.570213680810606e-12 
1.6325553344491236e-12 
1.4456809062120942e-12 
9.46147889573241e-12 
1.3016532374004247e-11 
1.3989121063184176e-11 
1.2511882292546062e-11 
9.476329671192611e-12 
5.9004833433494095e-12 
2.94171766650918e-12 
9.908449863291108e-13 
3.0395440144000785e-13 
1.759700468077869e-14 
2.072527346423642e-14 
-3.0448451335412095e-15 
8.669641181276392e-15 
8.370087386711628e-16 
-1.2158768758877047e-14 
-8.127338804604356e-15 
1.536205183940397e-14 
-1.893973061495513e-13 
1.1177106771239556e-11 
8.967714619362388e-12 
7.534035679758926e-12 
6.63483928933665e-12 
5.156636397698852e-12 
4.21358566980213e-12 
4.173466047628915e-12 
3.0990161304334207e-12 
4.57691609001117e-12 
0.3273486123253591 
0.9854001717111449 
0.8068619547767735 
0.6753771897615563 
1.0007576308834742 
0.36842309574167936 
0.0024460149965259462 
0.8866098649722253 
0.9948961622824872 
0.7895609830123888 
0.14473560530345142 
0.21299368855687337 
0.7601248876147186 
0.5852482996901751 
0.03679182341266234 
0.9313601635792755 
0.8069152742551734 
1.0019500725903434 
0.4398209784557595 
0.9968177257378263 
0.18181393120590247 
0.6129805518669175 
0.22631518830714994 
1.007492118110825 
0.5348662535656724 
1.0002108041529227 
0.0066829983690495165 
0.9018842452022927 
0.4369812473867779 
0.9727019965001199 
0.8669359551277471 
1.965808024947838e-5 
1.0003080465977336 
0.030830643246568038 
0.5389342677047179 
0.8268910613315151 
0.000742463448514087 
0.06094472784699606 
0.7436100478516754 
0.7895416066077796 
0.04154223540224849 
0.4203255904139219 
0.2638847908597788 
1.0087389993637692 
0.08272111360596095 
0.6467787191698704 
0.9748694424066172 
0.1657608406371319 
0.9179196715467054 
0.00042003517165678175 
0.049360595667010114 
0.9994659145978863 
1.0009034308262093 
0.9972443919494429 
0.2787506908680518 
0.08536718040048277 
0.5337478451897802 
0.06487223872000905 
0.18623289052154773 
0.4753263342183508 
0.7447015163930776 
0.8089873205325182 
0.39866428551910915 
0.37211639783051054 
0.8173547431835213 
0.9431718076486368 
0.7840124920742852 
0.20357588611495972 
0.25107892243907126 
0.5560823252664532 
0.9975865842823668 
0.0030771456187437688 
0.8706321290575356 
0.01650009748567738 
0.9993084699568737 
0.37624335777464274 
0.45035323454041676 
-2.2012824741330912e-5 
0.9464853456608765 
0.9078765100149934 
0.9867128900627214 
0.9908272628963358 
0.9684014679735515 
0.7403661698746503 
0.7515043774598766 
0.9551650828822605 
0.7122102175593805 
1.0013028302946105 
0.014962578549430594 
0.3020844965592555 
0.11754849400317378 
0.02290212971288805 
0.2698889606412417 
0.9486630850927876 
0.0659716629392818 
0.8612697376764904 
0.24209495038867473 
0.9856391356655202 
0.7501013255722779 
0.01899327357847444 
0.1619188058727739 
0.33296770120608626 
0.46385606388337147 
0.9820804309397763 
0.703755282428903 
1.0002262075931176 
0.9946234135800158 
0.9981936008061973 
-1.9937963591644724e-5 
0.0002743258584863714 
0.524132079570242 
0.8145985059316901 
0.015132286852527613 
0.9129973242990044 
1.0011301989053434 
0.43197831003982223 
0.6172941883076003 
0.6756267023427982 
0.6151118362369397 
7.742915873136283e-5 
0.016554830115890797 
-9.879303064356112e-5 
1.0006824425195397 
0.7334811850745079 
0.9736155738724512 
0.3304118583824604 
0.08594806964720152 
0.1768568756702577 
0.8335228476245773 
0.002112285191395078 
0.9718726057995569 
0.19213604313808955 
0.5129591327364597 
0.8754144495366941 
0.616887828395693 
0.15766404792108515 
1.0310499229084378 
0.9989348638214506 
0.0001507329155228522 
0.4909378612541432 
0.9373089220381526 
0.06566118135053323 
0.017816014368595614 
0.8975025928778231 
0.7053814669679158 
1.09287069590534 
0.7615357410946199 
0.6381582007453623 
0.01965361366640047 
0.5384039719497526 
1.0062770478635024 
1.00166038346435 
1.0005879575826588 
0.937195059742335 
1.0003845679976358 
-2.6666114007667993e-5 
0.33438905350852727 
1.008115304298526 
0.16834262866355681 
0.5843029603483489 
0.898126217858834 
0.46444567799293457 
1.1676978079333333 
0.004463072115978825 
0.7355222716913115 
0.8487812801728777 
0.5612733570002933 
0.4362692870041828 
0.14054971975057448 
0.12097652620570525 
0.024482901090441017 
0.3481688924149809 
0.13727595037894563 
0.029727108602899326 
-0.00010343043617919114 
0.6440096271279003 
0.9410875044384701 
0.057494539238954055 
0.9995768403228532 
0.790711602770753 
0.8612278822394406 
0.9981362421375771 
1.0159189116941252 
0.011395366317359764 
0.9188950102239197 
0.0012384611525161561 
0.003918037882136409 
0.1839323609220405 
0.7715300405019319 
0.9998649462377102 
0.09188650802547574 
0.0235501931462965 
0.0004524766672192563 
1.0001461079056846 
0.1720504049121798 
1.189496051913319 
0.48192225213165163 
0.6526631296335367 
0.692480850172933 
0.2451191823513852 
0.2786347559855501 
0.011281347929984442 
0.8839722462921251 
0.03745215361147076 
1.0011662968180233 
0.7234262337505117 
0.7191411655358955 
0.18285497026329187 
0.7608247951788482 
0.8328577344183473 
1.0200807512481944 
0.0034692264931597385 
0.00010436658499647189 
0.8657031367945287 
1.000136700793435 
0.16288545881858035 
0.7239290793721692 
0.9954047814790545 
1.0000903981061267 
0.639131654581214 
0.5548116109257829 
0.007747285413841046 
0.4078034032316379 
0.5931986915148507 
0.4068804438011244 
0.44873005098542884 
0.9064704438800126 
0.02704056695917766 
1.000452048769121 
0.4440364118894204 
0.9186020354723929 
0.07080228787166501 
0.9680090056338497 
0.8329807356089446 
0.7968151858528993 
0.006469859239030031 
0.8060515686769547 
0.01445548124587504 
0.32640373698847974 
0.5817811941693921 
0.3679241412099034 
1.0697707783689485 
0.7999784933157157 
0.8685341796762867 
0.7774707546772901 
0.05281151937197886 
0.3585808292342455 
0.9863714228779081 
0.10850276002217683 
0.2718766706126272 
1.0015255677102388 
0.14809601992378021 
1.2101626981411664 
0.9992485530041345 
0.4189440890524915 
0.9828344471906987 
0.9935439815283423 
0.1894423269420828 
0.9688081960882258 
0.9962153139871408 
-1.9249795017317503e-6 
1.071270437529202 
0.06843780657082092 
0.4213632000510391 
1.0047209828720423 
0.3115057904123055 
0.9776503137180129 
0.14479866341618122 
0.1333297873619979 
0.33159004694791844 
0.8271251188947611 
0.5125297360060499 
-2.53132898302983e-5 
0.9589962941409953 
0.32993275113967013 
0.4558677270205153 
0.9997181163444887 
1.0035453350728771 
0.06885246787323586 
0.9467689088192085 
0.0003195363135664924 
0.6901721195885958 
0.3195482049608542 
0.5119382256961343 
0.8448980440123467 
0.9166141930145808 
1.0002372384761404 
0.19230870454075594 
0.44098451840939873 
0.1788904127288776 
0.008484050376693354 
0.244420228433443 
0.06401565352727254 
1.1051356712362691e-5 
0.9966856474786931 
0.08695056841678958 
0.1403226431616589 
0.8330318712206274 
0.7699240599740186 
0.3391796950490017 
0.021893078372263793 
0.9536940792991726 
0.5903595853917817 
0.9977118369342002 
0.9266691903835752 
0.0192060230190217 
0.6197564332097619 
0.8781146181908882 
1.0000251494954087 
0.9972524462031294 
0.013924750909376114 
0.6525773278814381 
0.9729937915397922 
0.00028310302777657844 
0.40348664644260823 
0.26689711121132137 
0.06457303705791323 
0.029504275895690168 
0.9820797338752559 
1.001210737387928 
0.70761616952012 
0.8311997919416866 
0.7904127008660095 
0.9974379810741276 
0.7446361508761479 
4.259788398852034e-6 
1.0014459719029694 
0.9982793872590905 
0.3561840578249494 
0.006031276604915416 
0.7893445763992863 
1.0012509039442783 
0.5892794694454262 
0.0033886580326225172 
0.7001852305083643 
0.45444901381047575 
0.602443774660723 
0.8470369268453052 
0.10156099346835806 
0.051236167297661964 
6.725466140863052e-7 
1.0185047012415964 
1.136546947477057 
0.04867563775564635 
0.6350981938532605 
1.0243067381613058 
0.5133933503978882 
0.961565655548939 
0.05955436913876468 
1.000081684813709 
0.9371860828532805 
0.8342430670537486 
0.0016719524922204753 
-3.1923498536007424e-5 
0.009089968662041384 
0.36142629642159874 
0.663940264946803 
