# vtk DataFile Version 3.0 
Unstructured Grid 
ASCII 
DATASET UNSTRUCTURED_GRID
POINTS 437 float 
0.5 0 0  
1 0 0  
1 1 0  
0 1 0  
0 0.5 0  
0.5 0.5 0  
0.55 0 0  
0.6 0 0  
0.65 0 0  
0.7 0 0  
0.75 0 0  
0.8 0 0  
0.85 0 0  
0.9 0 0  
0.95 0 0  
1 0.05 0  
1 0.1 0  
1 0.15 0  
1 0.2 0  
1 0.25 0  
1 0.3 0  
1 0.35 0  
1 0.4 0  
1 0.45 0  
1 0.5 0  
1 0.55 0  
1 0.6 0  
1 0.65 0  
1 0.7 0  
1 0.75 0  
1 0.8 0  
1 0.85 0  
1 0.9 0  
1 0.95 0  
0.95 1 0  
0.9 1 0  
0.85 1 0  
0.8 1 0  
0.75 1 0  
0.7 1 0  
0.65 1 0  
0.6 1 0  
0.55 1 0  
0.5 1 0  
0.45 1 0  
0.4 1 0  
0.35 1 0  
0.3 1 0  
0.25 1 0  
0.2 1 0  
0.15 1 0  
0.1 1 0  
0.05 1 0  
0 0.95 0  
0 0.9 0  
0 0.85 0  
0 0.8 0  
0 0.75 0  
0 0.7 0  
0 0.65 0  
0 0.6 0  
0 0.55 0  
0.05 0.5 0  
0.1 0.5 0  
0.15 0.5 0  
0.2 0.5 0  
0.25 0.5 0  
0.3 0.5 0  
0.35 0.5 0  
0.4 0.5 0  
0.45 0.5 0  
0.5 0.45 0  
0.5 0.4 0  
0.5 0.35 0  
0.5 0.3 0  
0.5 0.25 0  
0.5 0.2 0  
0.5 0.15 0  
0.5 0.1 0  
0.5 0.05 0  
0.7067263 0.70899034 0  
0.7462131 0.3784907 0  
0.275 0.75 0  
0.49203128 0.7759238 0  
0.8004979 0.19051445 0  
0.8169689 0.5569046 0  
0.8379451 0.8232311 0  
0.6651841 0.5643974 0  
0.6586247 0.24525054 0  
0.39886913 0.6556846 0  
0.6357807 0.845222 0  
0.15416667 0.65416664 0  
0.15469871 0.8490102 0  
0.37710553 0.86057764 0  
0.8530772 0.68242943 0  
0.5399757 0.6405682 0  
0.87012184 0.30832314 0  
0.6218386 0.41301885 0  
0.8712292 0.43948308 0  
0.6270563 0.12650847 0  
0.2721758 0.6146517 0  
0.26237586 0.88543755 0  
0.5290535 0.8872315 0  
0.8881946 0.111421056 0  
0.59896 0.74404466 0  
0.73382306 0.10964348 0  
0.7398329 0.9080902 0  
0.7300285 0.48150903 0  
0.10457365 0.74805343 0  
0.5998279 0.32869247 0  
0.4013559 0.7541197 0  
0.8998196 0.8998196 0  
0.7425495 0.27230954 0  
0.90489763 0.5939467 0  
0.7320272 0.6158908 0  
0.90734863 0.2194375 0  
0.90656686 0.7697009 0  
0.74241894 0.80003285 0  
0.632743 0.65343165 0  
0.46277094 0.5961966 0  
0.08243797 0.5905297 0  
0.08731128 0.91282296 0  
0.44904137 0.91765434 0  
0.57323986 0.55955005 0  
0.91513485 0.5138866 0  
0.1836753 0.7418762 0  
0.5856236 0.20050126 0  
0.35569865 0.5818674 0  
0.4717501 0.69469833 0  
0.8203882 0.9111774 0  
0.19848472 0.58481354 0  
0.7232736 0.19122238 0  
0.6770922 0.32269323 0  
0.80834067 0.08196056 0  
0.9230353 0.37846187 0  
0.78589296 0.72803205 0  
0.18855475 0.91950625 0  
0.6022492 0.9193816 0  
0.07701049 0.6750049 0  
0.07779311 0.8285882 0  
0.33496442 0.69013095 0  
0.22651649 0.8130275 0  
0.33345127 0.9266774 0  
0.56306595 0.81706417 0  
0.79485846 0.43853834 0  
0.57445616 0.4795266 0  
0.30524647 0.8211264 0  
0.8098617 0.6293174 0  
0.66652167 0.7748195 0  
0.44695833 0.83554715 0  
0.58482915 0.07054804 0  
0.92909133 0.6757825 0  
0.82267326 0.3699049 0  
0.6750539 0.9307201 0  
0.6726681 0.069687515 0  
0.22284219 0.6692463 0  
0.9308683 0.2891792 0  
0.930985 0.8368545 0  
0.57183284 0.395735 0  
0.56719327 0.267426 0  
0.8295321 0.2563277 0  
0.702163 0.41558313 0  
0.6631986 0.48596716 0  
0.5332523 0.7285968 0  
0.9389338 0.15767792 0  
0.9392354 0.06812419 0  
0.74606097 0.5461627 0  
0.668234 0.16889203 0  
0.82325417 0.7682245 0  
0.86888987 0.49205798 0  
0.9373707 0.42941386 0  
0.27492446 0.5574591 0  
0.7591465 0.66997904 0  
0.5625162 0.14507365 0  
0.698026 0.84136397 0  
0.33979788 0.7690552 0  
0.4100188 0.5701878 0  
0.86549294 0.1689855 0  
0.15718786 0.7919015 0  
0.14695793 0.56156343 0  
0.49887148 0.9348564 0  
0.39005366 0.9400572 0  
0.2756479 0.94468254 0  
0.79987353 0.31934652 0  
0.79108334 0.48730215 0  
0.7893297 0.13692713 0  
0.8729007 0.040251754 0  
0.65027624 0.3686311 0  
0.94156647 0.94156647 0  
0.77622527 0.94636667 0  
0.6486954 0.7048788 0  
0.5761476 0.67128414 0  
0.77190053 0.83744544 0  
0.60624254 0.5986166 0  
0.7550012 0.06245598 0  
0.50134873 0.8411101 0  
0.68467325 0.64302444 0  
0.053087775 0.72582155 0  
0.139265 0.9408418 0  
0.95088 0.7243738 0  
0.9432815 0.5566516 0  
0.86394966 0.9434744 0  
0.6805639 0.11338498 0  
0.20661557 0.866214 0  
0.5136965 0.55900043 0  
0.61441326 0.79211885 0  
0.5533345 0.9442417 0  
0.86748934 0.5476702 0  
0.45131102 0.7447211 0  
0.9522712 0.6298776 0  
0.49115333 0.6454875 0  
0.57800794 0.87019897 0  
0.14164469 0.70855445 0  
0.38005453 0.7027296 0  
0.27368295 0.69533986 0  
0.049783085 0.62717026 0  
0.049414515 0.87215096 0  
0.62649876 0.043947894 0  
0.8786532 0.85014766 0  
0.34885973 0.6374005 0  
0.5949198 0.5178657 0  
0.86131465 0.63502216 0  
0.79260343 0.80256337 0  
0.7014114 0.5166631 0  
0.40068594 0.814811 0  
0.55082065 0.3157755 0  
0.6816506 0.59935296 0  
0.3207115 0.869895 0  
0.05274013 0.55274016 0  
0.05274013 0.94725984 0  
0.6400825 0.29462123 0  
0.70826656 0.24477807 0  
0.7619463 0.22610597 0  
0.052983053 0.7814943 0  
0.7439376 0.3234126 0  
0.95078784 0.88415176 0  
0.9592077 0.22841401 0  
0.84777594 0.1277937 0  
0.9565159 0.32835326 0  
0.87450755 0.38491434 0  
0.8723333 0.26038516 0  
0.2202579 0.9566307 0  
0.5511588 0.44135624 0  
0.89094824 0.71469563 0  
0.14088513 0.8952839 0  
0.9426072 0.110777475 0  
0.5598569 0.76635987 0  
0.7797588 0.58802515 0  
0.73662144 0.7500704 0  
0.80291736 0.6806566 0  
0.3250526 0.545103 0  
0.47699997 0.87967384 0  
0.109880045 0.6315259 0  
0.9565706 0.4731244 0  
0.9520049 0.7877815 0  
0.41847795 0.61317724 0  
0.7469016 0.43319932 0  
0.6651573 0.8785795 0  
0.6980314 0.36945662 0  
0.22855084 0.7651636 0  
0.5426688 0.22467211 0  
0.85128033 0.20839585 0  
0.6080812 0.24411796 0  
0.22691919 0.54427826 0  
0.42439926 0.70143026 0  
0.87087065 0.7973803 0  
0.71672744 0.95107883 0  
0.83949435 0.5922577 0  
0.34957552 0.8123493 0  
0.51278394 0.6086165 0  
0.15431206 0.6098422 0  
0.6343587 0.9556687 0  
0.8392547 0.8737899 0  
0.7109742 0.042080052 0  
0.23100297 0.62427217 0  
0.5484106 0.51544434 0  
0.42224586 0.8707757 0  
0.10496536 0.8650706 0  
0.11225842 0.7941315 0  
0.429402 0.95576584 0  
0.46295157 0.54450357 0  
0.10164671 0.5457688 0  
0.5822864 0.63314605 0  
0.37762833 0.53745234 0  
0.8275239 0.04005421 0  
0.8323437 0.41491747 0  
0.44464156 0.7891728 0  
0.90912354 0.4597161 0  
0.26412204 0.8401569 0  
0.26712763 0.7957094 0  
0.62024623 0.47111306 0  
0.7770051 0.8863074 0  
0.8221126 0.9602037 0  
0.5225849 0.68752897 0  
0.76535124 0.17708147 0  
0.31416538 0.59776855 0  
0.53816175 0.1840494 0  
0.6130816 0.16364412 0  
0.7091263 0.2886451 0  
0.22773811 0.71831167 0  
0.9012153 0.33257928 0  
0.18447237 0.53813106 0  
0.18472914 0.6879896 0  
0.82954866 0.46472684 0  
0.17961553 0.9633957 0  
0.36685705 0.9008585 0  
0.44457012 0.65111244 0  
0.8385268 0.7209097 0  
0.7115207 0.14475605 0  
0.09503517 0.95690435 0  
0.7880896 0.39571288 0  
0.96492094 0.38520482 0  
0.5563232 0.6018296 0  
0.31393582 0.73382735 0  
0.49519077 0.7332941 0  
0.9629974 0.5187325 0  
0.5415193 0.100338124 0  
0.9036664 0.6412981 0  
0.3244769 0.96671104 0  
0.2306904 0.9144942 0  
0.035453074 0.6754281 0  
0.035497267 0.82603335 0  
0.18655832 0.81865835 0  
0.54264426 0.042344484 0  
0.70526683 0.56849337 0  
0.5891552 0.9625355 0  
0.09987184 0.7080552 0  
0.6646015 0.4450029 0  
0.62016 0.87781084 0  
0.68724763 0.7468739 0  
0.6794575 0.21179324 0  
0.66522187 0.8161647 0  
0.5348051 0.47726545 0  
0.77173877 0.09966874 0  
0.30060795 0.6489708 0  
0.5900102 0.4408019 0  
0.6355171 0.20569986 0  
0.19041659 0.6358006 0  
0.7817328 0.35663295 0  
0.85770756 0.080021024 0  
0.90471005 0.95934963 0  
0.53831446 0.36966592 0  
0.24070142 0.5850949 0  
0.63882816 0.744377 0  
0.6058876 0.3669202 0  
0.9048971 0.4124307 0  
0.5905425 0.11210937 0  
0.6993429 0.7882209 0  
0.5656613 0.9052634 0  
0.7704826 0.63249016 0  
0.8522724 0.33958897 0  
0.296919 0.9075354 0  
0.9667555 0.83175755 0  
0.5987462 0.28922248 0  
0.11813834 0.6749375 0  
0.38161784 0.6131642 0  
0.6618531 0.40398476 0  
0.6370484 0.08659111 0  
0.038074076 0.5894313 0  
0.038074076 0.9105687 0  
0.96839094 0.6753669 0  
0.14384495 0.75045496 0  
0.5411818 0.84978336 0  
0.52673554 0.8019128 0  
0.7657028 0.46494102 0  
0.961649 0.03835645 0  
0.675 0.030283678 0  
0.7518289 0.70853835 0  
0.96001375 0.18740793 0  
0.9678583 0.27471802 0  
0.67516285 0.9681792 0  
0.59831095 0.83401567 0  
0.9073243 0.5525552 0  
0.8611736 0.90393615 0  
0.5795172 0.033180732 0  
0.5208923 0.96885955 0  
0.47072348 0.967185 0  
0.6462471 0.6071309 0  
0.52937275 0.275 0  
0.26006237 0.6504962 0  
0.73740774 0.8595233 0  
0.8331797 0.2957258 0  
0.47728643 0.80960673 0  
0.9208824 0.037562877 0  
0.9040851 0.18120942 0  
0.70257896 0.8997159 0  
0.97050655 0.074435726 0  
0.36017016 0.7398202 0  
0.7106061 0.0794504 0  
0.63714504 0.33196637 0  
0.890113 0.67338765 0  
0.17423429 0.88494647 0  
0.70125586 0.4576201 0  
0.9066001 0.8085411 0  
0.71885514 0.6719225 0  
0.36035147 0.9661565 0  
0.42251006 0.5290217 0  
0.9723008 0.4259288 0  
0.64294964 0.51980066 0  
0.78817964 0.03501066 0  
0.570402 0.7144006 0  
0.12055232 0.8290842 0  
0.19649777 0.7861254 0  
0.67484623 0.27905807 0  
0.36568695 0.6714864 0  
0.97151566 0.9645467 0  
0.8305832 0.16528471 0  
0.7877058 0.2744767 0  
0.4071035 0.9074601 0  
0.8660333 0.7541822 0  
0.75281197 0.5088334 0  
0.80377316 0.22890417 0  
0.7842619 0.53388166 0  
0.80658257 0.8577738 0  
0.8967399 0.28827333 0  
0.82637364 0.5137572 0  
0.9234294 0.25649244 0  
0.30519488 0.78316474 0  
0.8318979 0.6562427 0  
0.121106885 0.5892234 0  
0.97378284 0.925 0  
0.903588 0.07469306 0  
0.5322612 0.41135144 0  
0.63939583 0.91243213 0  
0.6109627 0.7054028 0  
0.57147133 0.35136378 0  
0.6785297 0.6806924 0  
0.90144104 0.14535177 0  
0.7748313 0.76722825 0  
0.7498974 0.14247963 0  
0.61986715 0.56109023 0  
0.36870277 0.77900666 0  
0.9640754 0.59000534 0  
0.9105131 0.86591715 0  
0.027604798 0.5276048 0  
0.027604798 0.9723952 0  
0.5214134 0.7612175 0  
CELLS 792 3168 
3 407 234 112 
3 413 222 86 
3 183 234 407 
3 108 278 233 
3 97 158 344 
3 124 207 169 
[...]
POINT_DATA 437 
SCALARS T float 
LOOKUP_TABLE default 
0.50000000000129 
0.5000000000016751 
3.262782642427626e-18 
7.215345570484181e-16 
1.5254884142601198e-18 
9.657242590643718e-12 
0.9999999999996505 
1.0000000000000078 
1.0000000000000027 
0.9999999999999991 
0.999999999999993 
0.9999999999999931 
1.0000000000000153 
1.0000000000000302 
0.9999999999995309 
4.592379588982411e-12 
2.309280679474395e-12 
9.852722248015322e-13 
7.076249331001333e-13 
3.626734535426777e-13 
1.3058124440659712e-13 
6.178697476435103e-14 
3.703004214065556e-14 
-1.4190055105668655e-14 
9.092484404500417e-15 
-3.165851147997535e-14 
-7.073891956078701e-15 
-2.3146424502202165e-15 
2.544904635672667e-16 
8.109454960484335e-16 
2.9309820962784057e-16 
1.2759160279189222e-16 
4.651335716040315e-17 
-1.851392461386407e-17 
-4.740916664273798e-17 
7.335201959571783e-18 
-4.114588362829045e-16 
1.1677794987755645e-15 
4.163771771517894e-15 
2.659003899522746e-14 
6.741153871390204e-14 
1.2584628035293678e-13 
1.9874408758939122e-13 
2.2389522893280728e-13 
2.341872136948066e-13 
2.2099463411697486e-13 
1.3164138274948117e-13 
1.0967081099967731e-13 
4.626196978726398e-14 
2.1295762985296586e-14 
1.476002716771135e-14 
1.3598897370075993e-15 
1.0399518122327404e-15 
3.625451855945045e-15 
6.0402566458794236e-15 
8.715931361270912e-15 
1.0279823730477507e-14 
9.57175032148073e-15 
6.173677958019153e-15 
2.6225104765144185e-15 
5.874873543722302e-16 
5.473488488467463e-17 
-4.563247666167239e-17 
-1.8201994196755825e-17 
-1.4667101758028416e-16 
-8.279953128566233e-17 
-2.710894484776253e-15 
-3.617378196126013e-15 
-5.026952275944147e-15 
9.543873735226203e-15 
-1.825188685840786e-13 
1.0738611605675267e-11 
8.788949581837244e-12 
7.47924575379329e-12 
6.62210597494188e-12 
5.153983013013498e-12 
4.213287426260176e-12 
4.173454796195104e-12 
3.0990520013467762e-12 
4.576909758837438e-12 
0.30834658264690246 
0.9852731956334673 
0.0808983377151277 
0.3377747324570063 
1.000756585455064 
0.36795719025929813 
0.0022610943244254656 
0.8697279767775731 
0.9949574128317612 
0.3606609622978225 
0.10046134104580086 
0.005233531183282618 
0.007418624651173498 
0.0937665577429911 
0.03648915288803146 
0.7531841234606604 
0.8069057459921815 
0.9988789321408602 
0.4398642551060282 
0.9968268150322925 
0.028274558366672416 
0.024528483202311584 
0.09314323006132941 
1.007492518827431 
0.4163210452126273 
1.0002119518133672 
0.005098694923401265 
0.9002791375140015 
0.0039681890917336645 
0.972330480110033 
0.27340818228940406 
1.266583148925173e-5 
1.0003031914948721 
0.03079967806569415 
0.5316115956185503 
0.8268896229083957 
0.0007362326030712197 
0.05490945857563102 
0.684484884412907 
0.5690592501283541 
0.00016129665521759858 
0.0011265659175371888 
0.059996448580072186 
0.9385435997230381 
0.08271543074075172 
0.01971454274871291 
0.9749037442028117 
0.06794241481090832 
0.530711868035738 
0.0003384999429868908 
0.002170599964798462 
0.9994787940451763 
1.0007437783086799 
0.9972439232796989 
0.2787773583923507 
0.08292722721617726 
0.006081396336983874 
0.033563886284633665 
0.0011343699168610227 
0.0018989551463592705 
0.1851893192703846 
0.03043403380904795 
0.029460915940963638 
0.22046637873477593 
0.8170139550501471 
0.922494697312682 
0.07590136905839007 
0.20239713142618276 
0.21242794384494726 
0.1739769081194138 
0.9975857323424533 
0.003059013886676189 
0.8706137848690298 
0.010370789480518245 
0.99930913751399 
0.027107662466683235 
0.4503500450969402 
-2.2679699530258657e-5 
0.9428460968606865 
0.9078998918767163 
0.9867127134909031 
0.9902013759627234 
0.9635420189597367 
0.4961287010117279 
0.7515037107322676 
0.9551651098483358 
0.7095259108845391 
1.0012987857011795 
0.014479044454576045 
0.30201985089868527 
0.11754526193892528 
0.0035686012194472154 
0.26438590180622645 
0.9486562271870153 
0.05202953510814594 
0.15578159685744825 
0.1417656710210273 
0.9856391553602434 
0.011171940800047723 
0.0001887074744131875 
0.046230239175225854 
0.03899335531400435 
0.014646819906302944 
0.9820726338013956 
0.7036445795880647 
1.0002290140578514 
0.9946232986373333 
0.9977096213454569 
-1.4257412173849363e-5 
0.0001695608626063767 
0.4674673245093101 
0.6793704079722409 
0.013203629346536513 
0.8540980037242301 
1.001130285531668 
0.18270620463296272 
0.594133474861062 
0.0012045305042584218 
0.0023406965033400478 
7.064374529612585e-5 
0.016551232165022575 
-7.554962075793983e-5 
1.0006841700865785 
0.014449820822089975 
0.8444086959118834 
0.24492452882819854 
0.03172691031148493 
0.1768331679467965 
0.37408301379739894 
0.002117750951185714 
0.6850104908768825 
0.10422459781317497 
0.007551558003213442 
0.2959339549685816 
0.08021122981841917 
0.00021239290945390392 
0.0008555921610984415 
0.9989371714133304 
0.00014063035846866216 
0.16818491746703532 
0.9130757412999988 
0.06555679334217202 
0.016604139554756273 
0.8950601993217103 
0.17008411989938457 
1.0902906998253508 
0.743556134022311 
0.054137437192139884 
8.092426802211028e-6 
0.0004038486236440008 
1.0060646356293335 
1.001635346991305 
1.000601353266786 
0.001417119000073892 
1.0003661943307178 
-2.0424908473083554e-5 
0.3343865645379588 
1.008114156495509 
0.16832821274195034 
0.5842451790191748 
0.8981317774660835 
0.006504812369503574 
1.1374147072354184 
0.004435452408330692 
0.00375106558327612 
0.8487816436470066 
0.37582210705982616 
0.4347877699734536 
0.13101246235007658 
0.1196003318017822 
0.007288801998835473 
0.10973396967948709 
0.001099400429042037 
0.029725851018704362 
-0.00010166320272341514 
0.37795279758079686 
0.9412518875995823 
0.04015048166259306 
0.9995007777248962 
0.040472343099616934 
0.8611181848946504 
0.9981347775238669 
1.015761578705845 
0.000821244561783839 
0.41202531284374555 
0.0011672585539545173 
0.00254030989977068 
0.18365091629814081 
0.12036886067965107 
0.8006359020833711 
0.0018918690946443941 
0.011969139338496096 
0.0003708744758458086 
1.0001460094152705 
0.014973861980233146 
1.113079347073635 
0.10701649687562828 
0.002547519325114399 
0.0045967730141600275 
0.03569805535484554 
0.21442730728092674 
1.8792406192083802e-5 
0.7796682652584409 
0.01847502962411977 
1.0011663971408606 
0.7235212793974883 
0.2630672873954869 
0.18287169500513753 
0.039498434060413375 
0.0593197743182059 
1.0073609345717698 
0.002758680680369261 
7.738939000109702e-5 
0.6141752935328808 
1.0001324930698643 
0.04329139954594656 
0.7239240757125494 
0.9953943147900253 
1.000114976049631 
0.04076045645751799 
0.5548286329174049 
0.00017506952932237483 
0.015622140535926582 
0.5930617032385327 
0.0031739050618019467 
0.05433978887586858 
0.5300352421317637 
0.026588625755878816 
1.0004515158419636 
0.0007567131131775834 
0.9184758890667206 
0.07079631610670269 
0.849245794625178 
0.13871725916094432 
0.45664201814760524 
0.006464264828154618 
0.8060589346064744 
0.014403093771091847 
0.017358490532977944 
0.0121476683723731 
0.0004640752881978675 
0.0009320637135005464 
0.016329182265019445 
0.868533158869209 
0.7698216000473223 
0.019210952061100177 
0.0029496075950884285 
0.984668995424258 
0.06574040329423653 
0.24392374280499926 
1.0015152265610234 
0.11611687599171479 
1.1457921155881914 
0.999249145553141 
0.08836529933220041 
0.9720069334931059 
0.9935767450824713 
0.008246932352314445 
0.9688215919753965 
0.9962158872715772 
7.310531067862977e-7 
1.061132948865522 
0.006433445747692471 
0.3523034055875673 
1.001805058123099 
0.3114726267751619 
0.9776624892648712 
0.12484472058863694 
0.062362734090232554 
0.3278396421121706 
0.8271458776193301 
0.02805221453276507 
-2.539396707670256e-5 
0.9589675563085449 
0.0031071348128129893 
0.21407109290530374 
0.9982040341115817 
1.00354255894628 
4.5786803017109966e-5 
0.0004959181119340768 
0.00032942146736070796 
0.009619165181534755 
0.15820039909786288 
0.276332554049316 
0.8449302801658568 
0.9166142931278847 
1.0002371497097142 
0.18476224408080497 
0.44098597952573887 
0.17889764770457794 
0.004410214538660917 
0.15817308774827457 
0.06399605754692313 
6.373502609350863e-6 
0.9966864060677946 
0.02400377667799317 
0.028628919722196583 
0.7968450561075147 
0.7693276223975691 
0.043528534950486954 
0.0182416112489127 
0.9536862368512871 
0.2434712109157738 
0.9977120147189642 
0.9266700886857696 
0.013479686632147604 
0.6197563673074697 
0.21632493940772968 
1.000025029100168 
0.9972924774229173 
0.013862762952467753 
0.007683334573732561 
0.9708499607992848 
0.00027594635146322306 
0.38928176257395924 
0.021442401329065296 
0.04390199428930678 
0.029501524096491573 
0.9663521072255017 
1.0012111193278157 
0.5423885317660575 
0.004629836901536908 
0.02273588735866833 
0.9974816470792883 
0.2613389588055842 
3.059058006934914e-6 
1.0014480852863714 
0.9982886842886252 
0.06086615589987984 
0.005891770460047474 
0.7877833883506684 
1.001248292681148 
0.5883421740758823 
0.003061956589075539 
0.7001825632431942 
0.45436838731836704 
0.6024424658682825 
0.100438048690627 
0.10079186097837942 
0.00044161477456515345 
6.852028051971888e-7 
1.0185043705005838 
1.1097801873584376 
0.02845881831160389 
0.5367355502552233 
1.0200491602622055 
0.4812843280008838 
0.9615657213364522 
0.056078038156882004 
1.0000800596287487 
0.9046314046203978 
0.18554936143699552 
0.0016690920875811366 
-2.6822955355166157e-5 
1.1858219850811675e-6 
0.00015028143300721756 
0.3922605122707696 
