# vtk DataFile Version 3.0 
Unstructured Grid 
ASCII 
DATASET UNSTRUCTURED_GRID
POINTS 437 float 
0.5 0 0  
1 0 0  
1 1 0  
0 1 0  
0 0.5 0  
0.5 0.5 0  
0.55 0 0  
0.6 0 0  
0.65 0 0  
0.7 0 0  
0.75 0 0  
0.8 0 0  
0.85 0 0  
0.9 0 0  
0.95 0 0  
1 0.05 0  
1 0.1 0  
1 0.15 0  
1 0.2 0  
1 0.25 0  
1 0.3 0  
1 0.35 0  
1 0.4 0  
1 0.45 0  
1 0.5 0  
1 0.55 0  
1 0.6 0  
1 0.65 0  
1 0.7 0  
1 0.75 0  
1 0.8 0  
1 0.85 0  
1 0.9 0  
1 0.95 0  
0.95 1 0  
0.9 1 0  
0.85 1 0  
0.8 1 0  
0.75 1 0  
0.7 1 0  
0.65 1 0  
0.6 1 0  
0.55 1 0  
0.5 1 0  
0.45 1 0  
0.4 1 0  
0.35 1 0  
0.3 1 0  
0.25 1 0  
0.2 1 0  
0.15 1 0  
0.1 1 0  
0.05 1 0  
0 0.95 0  
0 0.9 0  
0 0.85 0  
0 0.8 0  
0 0.75 0  
0 0.7 0  
0 0.65 0  
0 0.6 0  
0 0.55 0  
0.05 0.5 0  
0.1 0.5 0  
0.15 0.5 0  
0.2 0.5 0  
0.25 0.5 0  
0.3 0.5 0  
0.35 0.5 0  
0.4 0.5 0  
0.45 0.5 0  
0.5 0.45 0  
0.5 0.4 0  
0.5 0.35 0  
0.5 0.3 0  
0.5 0.25 0  
0.5 0.2 0  
0.5 0.15 0  
0.5 0.1 0  
0.5 0.05 0  
0.7067263 0.70899034 0  
0.7462131 0.3784907 0  
0.275 0.75 0  
0.49203128 0.7759238 0  
0.8004979 0.19051445 0  
0.8169689 0.5569046 0  
0.8379451 0.8232311 0  
0.6651841 0.5643974 0  
0.6586247 0.24525054 0  
0.39886913 0.6556846 0  
0.6357807 0.845222 0  
0.15416667 0.65416664 0  
0.15469871 0.8490102 0  
0.37710553 0.86057764 0  
0.8530772 0.68242943 0  
0.5399757 0.6405682 0  
0.87012184 0.30832314 0  
0.6218386 0.41301885 0  
0.8712292 0.43948308 0  
0.6270563 0.12650847 0  
0.2721758 0.6146517 0  
0.26237586 0.88543755 0  
0.5290535 0.8872315 0  
0.8881946 0.111421056 0  
0.59896 0.74404466 0  
0.73382306 0.10964348 0  
0.7398329 0.9080902 0  
0.7300285 0.48150903 0  
0.10457365 0.74805343 0  
0.5998279 0.32869247 0  
0.4013559 0.7541197 0  
0.8998196 0.8998196 0  
0.7425495 0.27230954 0  
0.90489763 0.5939467 0  
0.7320272 0.6158908 0  
0.90734863 0.2194375 0  
0.90656686 0.7697009 0  
0.74241894 0.80003285 0  
0.632743 0.65343165 0  
0.46277094 0.5961966 0  
0.08243797 0.5905297 0  
0.08731128 0.91282296 0  
0.44904137 0.91765434 0  
0.57323986 0.55955005 0  
0.91513485 0.5138866 0  
0.1836753 0.7418762 0  
0.5856236 0.20050126 0  
0.35569865 0.5818674 0  
0.4717501 0.69469833 0  
0.8203882 0.9111774 0  
0.19848472 0.58481354 0  
0.7232736 0.19122238 0  
0.6770922 0.32269323 0  
0.80834067 0.08196056 0  
0.9230353 0.37846187 0  
0.78589296 0.72803205 0  
0.18855475 0.91950625 0  
0.6022492 0.9193816 0  
0.07701049 0.6750049 0  
0.07779311 0.8285882 0  
0.33496442 0.69013095 0  
0.22651649 0.8130275 0  
0.33345127 0.9266774 0  
0.56306595 0.81706417 0  
0.79485846 0.43853834 0  
0.57445616 0.4795266 0  
0.30524647 0.8211264 0  
0.8098617 0.6293174 0  
0.66652167 0.7748195 0  
0.44695833 0.83554715 0  
0.58482915 0.07054804 0  
0.92909133 0.6757825 0  
0.82267326 0.3699049 0  
0.6750539 0.9307201 0  
0.6726681 0.069687515 0  
0.22284219 0.6692463 0  
0.9308683 0.2891792 0  
0.930985 0.8368545 0  
0.57183284 0.395735 0  
0.56719327 0.267426 0  
0.8295321 0.2563277 0  
0.702163 0.41558313 0  
0.6631986 0.48596716 0  
0.5332523 0.7285968 0  
0.9389338 0.15767792 0  
0.9392354 0.06812419 0  
0.74606097 0.5461627 0  
0.668234 0.16889203 0  
0.82325417 0.7682245 0  
0.86888987 0.49205798 0  
0.9373707 0.42941386 0  
0.27492446 0.5574591 0  
0.7591465 0.66997904 0  
0.5625162 0.14507365 0  
0.698026 0.84136397 0  
0.33979788 0.7690552 0  
0.4100188 0.5701878 0  
0.86549294 0.1689855 0  
0.15718786 0.7919015 0  
0.14695793 0.56156343 0  
0.49887148 0.9348564 0  
0.39005366 0.9400572 0  
0.2756479 0.94468254 0  
0.79987353 0.31934652 0  
0.79108334 0.48730215 0  
0.7893297 0.13692713 0  
0.8729007 0.040251754 0  
0.65027624 0.3686311 0  
0.94156647 0.94156647 0  
0.77622527 0.94636667 0  
0.6486954 0.7048788 0  
0.5761476 0.67128414 0  
0.77190053 0.83744544 0  
0.60624254 0.5986166 0  
0.7550012 0.06245598 0  
0.50134873 0.8411101 0  
0.68467325 0.64302444 0  
0.053087775 0.72582155 0  
0.139265 0.9408418 0  
0.95088 0.7243738 0  
0.9432815 0.5566516 0  
0.86394966 0.9434744 0  
0.6805639 0.11338498 0  
0.20661557 0.866214 0  
0.5136965 0.55900043 0  
0.61441326 0.79211885 0  
0.5533345 0.9442417 0  
0.86748934 0.5476702 0  
0.45131102 0.7447211 0  
0.9522712 0.6298776 0  
0.49115333 0.6454875 0  
0.57800794 0.87019897 0  
0.14164469 0.70855445 0  
0.38005453 0.7027296 0  
0.27368295 0.69533986 0  
0.049783085 0.62717026 0  
0.049414515 0.87215096 0  
0.62649876 0.043947894 0  
0.8786532 0.85014766 0  
0.34885973 0.6374005 0  
0.5949198 0.5178657 0  
0.86131465 0.63502216 0  
0.79260343 0.80256337 0  
0.7014114 0.5166631 0  
0.40068594 0.814811 0  
0.55082065 0.3157755 0  
0.6816506 0.59935296 0  
0.3207115 0.869895 0  
0.05274013 0.55274016 0  
0.05274013 0.94725984 0  
0.6400825 0.29462123 0  
0.70826656 0.24477807 0  
0.7619463 0.22610597 0  
0.052983053 0.7814943 0  
0.7439376 0.3234126 0  
0.95078784 0.88415176 0  
0.9592077 0.22841401 0  
0.84777594 0.1277937 0  
0.9565159 0.32835326 0  
0.87450755 0.38491434 0  
0.8723333 0.26038516 0  
0.2202579 0.9566307 0  
0.5511588 0.44135624 0  
0.89094824 0.71469563 0  
0.14088513 0.8952839 0  
0.9426072 0.110777475 0  
0.5598569 0.76635987 0  
0.7797588 0.58802515 0  
0.73662144 0.7500704 0  
0.80291736 0.6806566 0  
0.3250526 0.545103 0  
0.47699997 0.87967384 0  
0.109880045 0.6315259 0  
0.9565706 0.4731244 0  
0.9520049 0.7877815 0  
0.41847795 0.61317724 0  
0.7469016 0.43319932 0  
0.6651573 0.8785795 0  
0.6980314 0.36945662 0  
0.22855084 0.7651636 0  
0.5426688 0.22467211 0  
0.85128033 0.20839585 0  
0.6080812 0.24411796 0  
0.22691919 0.54427826 0  
0.42439926 0.70143026 0  
0.87087065 0.7973803 0  
0.71672744 0.95107883 0  
0.83949435 0.5922577 0  
0.34957552 0.8123493 0  
0.51278394 0.6086165 0  
0.15431206 0.6098422 0  
0.6343587 0.9556687 0  
0.8392547 0.8737899 0  
0.7109742 0.042080052 0  
0.23100297 0.62427217 0  
0.5484106 0.51544434 0  
0.42224586 0.8707757 0  
0.10496536 0.8650706 0  
0.11225842 0.7941315 0  
0.429402 0.95576584 0  
0.46295157 0.54450357 0  
0.10164671 0.5457688 0  
0.5822864 0.63314605 0  
0.37762833 0.53745234 0  
0.8275239 0.04005421 0  
0.8323437 0.41491747 0  
0.44464156 0.7891728 0  
0.90912354 0.4597161 0  
0.26412204 0.8401569 0  
0.26712763 0.7957094 0  
0.62024623 0.47111306 0  
0.7770051 0.8863074 0  
0.8221126 0.9602037 0  
0.5225849 0.68752897 0  
0.76535124 0.17708147 0  
0.31416538 0.59776855 0  
0.53816175 0.1840494 0  
0.6130816 0.16364412 0  
0.7091263 0.2886451 0  
0.22773811 0.71831167 0  
0.9012153 0.33257928 0  
0.18447237 0.53813106 0  
0.18472914 0.6879896 0  
0.82954866 0.46472684 0  
0.17961553 0.9633957 0  
0.36685705 0.9008585 0  
0.44457012 0.65111244 0  
0.8385268 0.7209097 0  
0.7115207 0.14475605 0  
0.09503517 0.95690435 0  
0.7880896 0.39571288 0  
0.96492094 0.38520482 0  
0.5563232 0.6018296 0  
0.31393582 0.73382735 0  
0.49519077 0.7332941 0  
0.9629974 0.5187325 0  
0.5415193 0.100338124 0  
0.9036664 0.6412981 0  
0.3244769 0.96671104 0  
0.2306904 0.9144942 0  
0.035453074 0.6754281 0  
0.035497267 0.82603335 0  
0.18655832 0.81865835 0  
0.54264426 0.042344484 0  
0.70526683 0.56849337 0  
0.5891552 0.9625355 0  
0.09987184 0.7080552 0  
0.6646015 0.4450029 0  
0.62016 0.87781084 0  
0.68724763 0.7468739 0  
0.6794575 0.21179324 0  
0.66522187 0.8161647 0  
0.5348051 0.47726545 0  
0.77173877 0.09966874 0  
0.30060795 0.6489708 0  
0.5900102 0.4408019 0  
0.6355171 0.20569986 0  
0.19041659 0.6358006 0  
0.7817328 0.35663295 0  
0.85770756 0.080021024 0  
0.90471005 0.95934963 0  
0.53831446 0.36966592 0  
0.24070142 0.5850949 0  
0.63882816 0.744377 0  
0.6058876 0.3669202 0  
0.9048971 0.4124307 0  
0.5905425 0.11210937 0  
0.6993429 0.7882209 0  
0.5656613 0.9052634 0  
0.7704826 0.63249016 0  
0.8522724 0.33958897 0  
0.296919 0.9075354 0  
0.9667555 0.83175755 0  
0.5987462 0.28922248 0  
0.11813834 0.6749375 0  
0.38161784 0.6131642 0  
0.6618531 0.40398476 0  
0.6370484 0.08659111 0  
0.038074076 0.5894313 0  
0.038074076 0.9105687 0  
0.96839094 0.6753669 0  
0.14384495 0.75045496 0  
0.5411818 0.84978336 0  
0.52673554 0.8019128 0  
0.7657028 0.46494102 0  
0.961649 0.03835645 0  
0.675 0.030283678 0  
0.7518289 0.70853835 0  
0.96001375 0.18740793 0  
0.9678583 0.27471802 0  
0.67516285 0.9681792 0  
0.59831095 0.83401567 0  
0.9073243 0.5525552 0  
0.8611736 0.90393615 0  
0.5795172 0.033180732 0  
0.5208923 0.96885955 0  
0.47072348 0.967185 0  
0.6462471 0.6071309 0  
0.52937275 0.275 0  
0.26006237 0.6504962 0  
0.73740774 0.8595233 0  
0.8331797 0.2957258 0  
0.47728643 0.80960673 0  
0.9208824 0.037562877 0  
0.9040851 0.18120942 0  
0.70257896 0.8997159 0  
0.97050655 0.074435726 0  
0.36017016 0.7398202 0  
0.7106061 0.0794504 0  
0.63714504 0.33196637 0  
0.890113 0.67338765 0  
0.17423429 0.88494647 0  
0.70125586 0.4576201 0  
0.9066001 0.8085411 0  
0.71885514 0.6719225 0  
0.36035147 0.9661565 0  
0.42251006 0.5290217 0  
0.9723008 0.4259288 0  
0.64294964 0.51980066 0  
0.78817964 0.03501066 0  
0.570402 0.7144006 0  
0.12055232 0.8290842 0  
0.19649777 0.7861254 0  
0.67484623 0.27905807 0  
0.36568695 0.6714864 0  
0.97151566 0.9645467 0  
0.8305832 0.16528471 0  
0.7877058 0.2744767 0  
0.4071035 0.9074601 0  
0.8660333 0.7541822 0  
0.75281197 0.5088334 0  
0.80377316 0.22890417 0  
0.7842619 0.53388166 0  
0.80658257 0.8577738 0  
0.8967399 0.28827333 0  
0.82637364 0.5137572 0  
0.9234294 0.25649244 0  
0.30519488 0.78316474 0  
0.8318979 0.6562427 0  
0.121106885 0.5892234 0  
0.97378284 0.925 0  
0.903588 0.07469306 0  
0.5322612 0.41135144 0  
0.63939583 0.91243213 0  
0.6109627 0.7054028 0  
0.57147133 0.35136378 0  
0.6785297 0.6806924 0  
0.90144104 0.14535177 0  
0.7748313 0.76722825 0  
0.7498974 0.14247963 0  
0.61986715 0.56109023 0  
0.36870277 0.77900666 0  
0.9640754 0.59000534 0  
0.9105131 0.86591715 0  
0.027604798 0.5276048 0  
0.027604798 0.9723952 0  
0.5214134 0.7612175 0  
CELLS 792 3168 
3 407 234 112 
3 413 222 86 
3 183 234 407 
3 108 278 233 
3 97 158 344 
3 124 207 169 
[...]
POINT_DATA 437 
SCALARS T float 
LOOKUP_TABLE default 
0.5000000000012899 
0.5000000000016751 
5.399772116379536e-18 
8.190343661690227e-15 
9.603770900476608e-17 
1.0088425047776199e-11 
0.9999999999996505 
1.0000000000000078 
1.0000000000000027 
0.9999999999999991 
0.999999999999993 
0.9999999999999931 
1.0000000000000153 
1.0000000000000302 
0.9999999999995309 
4.592379278183882e-12 
2.3092813356693124e-12 
9.852740338760981e-13 
7.076177045987017e-13 
3.6268750959805964e-13 
1.3054084536237267e-13 
6.179233963316908e-14 
3.703397755975038e-14 
-1.4191508415244e-14 
9.085442049262507e-15 
-3.164624002296211e-14 
-7.0455248573211775e-15 
-2.2933805776310417e-15 
2.4233805841972737e-16 
8.325731834488183e-16 
2.9285092648937372e-16 
1.5636184286492033e-16 
5.314344705163588e-17 
-2.4488097350451828e-17 
-6.245326055947799e-17 
5.2436788008998694e-18 
-5.165579285558957e-16 
1.6542912172871696e-15 
6.649987021793621e-15 
3.878155084813702e-14 
1.0680543324878167e-13 
2.1556381077230515e-13 
3.765188884327084e-13 
4.729155758160053e-13 
5.592957967340423e-13 
5.942067409158642e-13 
4.1285971661315974e-13 
3.9783842988983724e-13 
2.0377953949007087e-13 
1.1187915715622592e-13 
8.933437255273422e-14 
1.3265512200953925e-14 
1.0364332891739454e-14 
3.952374641885623e-14 
6.087602086360049e-14 
7.925337010735904e-14 
8.55122656883888e-14 
7.571746194239726e-14 
4.7888295790148505e-14 
2.1644405726535232e-14 
5.911076351846076e-15 
1.0566369402141159e-15 
-1.7242609642063955e-16 
6.370748382280406e-17 
-3.153032288980439e-16 
4.48840174893266e-16 
-3.711297013507201e-15 
-6.4494931776034225e-15 
-6.005369235382438e-15 
1.246460642749761e-14 
-1.9059824433305592e-13 
1.104717031119482e-11 
8.918736255003506e-12 
7.520791494054836e-12 
6.632317536301892e-12 
5.156201539260041e-12 
4.213562437236855e-12 
4.173472711164372e-12 
3.0990269771804132e-12 
4.576913400133367e-12 
0.323110091263541 
0.9853600035075851 
0.20686861671857898 
0.4996194506494998 
1.0007573276625705 
0.3683674596669688 
0.002406420716909157 
0.8833543037820129 
0.9949192847205642 
0.5410102136643173 
0.12757123269677006 
0.019608763924284584 
0.03639924355192128 
0.21703302753577056 
0.03674171650075976 
0.865938238843741 
0.8069118522600921 
1.0015123491115983 
0.43983409377140853 
0.9968201299453562 
0.062235788529976806 
0.08646606569560748 
0.1528460724639258 
1.0074922214632556 
0.49251466943490924 
1.00021131106983 
0.006178231733163532 
0.9015804236379095 
0.019868019940570983 
0.9727233754602966 
0.4836036644873783 
1.8630656448162002e-5 
1.0003080659819235 
0.030823480742546077 
0.53775421742669 
0.8268906710243088 
0.0007485576665671671 
0.05952164812378939 
0.7283978506591133 
0.6921475880268638 
0.0010343529528423268 
0.008296686682565797 
0.12484348683890474 
0.9884185047809025 
0.08271749739165317 
0.06961469984356888 
0.9748799617586397 
0.10632843521036577 
0.7257284885597886 
0.0004077441099578127 
0.0071843664225969455 
0.9994706443617757 
1.0008781696633509 
0.9972442409470869 
0.27876099542199895 
0.0849776206495866 
0.03056106065248569 
0.05009834217609239 
0.006241572578344774 
0.01206437338523203 
0.34998742284837664 
0.10468034924119594 
0.08877597996020749 
0.3027245094546153 
0.8172549772140393 
0.9385063142183965 
0.20129481164114016 
0.2034173368952706 
0.23951548219611035 
0.3150748201408663 
0.9975863844160843 
0.0030728234380274604 
0.8706300516827333 
0.014017486403444726 
0.9993087148332944 
0.07453004869445615 
0.45035240748667926 
-2.4665748287964918e-5 
0.9460435750661932 
0.9079102008691002 
0.9867123354679885 
0.9907329766175604 
0.9677555005347078 
0.6352983509710921 
0.7515041614374426 
0.9551650929606857 
0.7117776215847299 
1.00130250448845 
0.014895036857858548 
0.3020714111235406 
0.11754640292034252 
0.008137315841420727 
0.268958081824662 
0.9486630549025983 
0.06141468365301549 
0.3341739918967628 
0.19130530015522018 
0.9856391178528138 
0.048175071484846496 
0.0010267962321764883 
0.08839668639270487 
0.1018443388613207 
0.05641622557203589 
0.9820765261689688 
0.7037727197849684 
1.0002270393121162 
0.9946233819838528 
0.9981323372203681 
-1.8934346143898448e-5 
0.00022426644259212846 
0.5083434331940927 
0.7696223511795296 
0.014590206078031027 
0.8976046467487805 
1.0011300948064146 
0.293481975392075 
0.6124230126954574 
0.008033981143914121 
0.014942874820863896 
7.207345595174077e-5 
0.016555112335977173 
-9.657947453591818e-5 
1.000682944962162 
0.06016597758542382 
0.928813501970938 
0.2992886581325067 
0.05522786077546106 
0.17686227305310726 
0.5763637499241763 
0.002114967622533536 
0.847051250367547 
0.15037887047149676 
0.031076259294641095 
0.5029920032238138 
0.18676695819845787 
0.001618932931006802 
0.0073061218585814105 
0.9989355885938298 
0.00015269682922360055 
0.2816540836135044 
0.9321602896606921 
0.06566230260194957 
0.017538417924747376 
0.8974278865037286 
0.337478472373182 
1.09235304554049 
0.7580973909004217 
0.15279161134841082 
0.00012538239828227584 
0.0037667955534387196 
1.0062227343946097 
1.0016520210693443 
1.0005920099229437 
0.010029657552299908 
1.0003836912928918 
-2.5314956546533186e-5 
0.33438782943090434 
1.0081149825898827 
0.16833604719903386 
0.5842823641894861 
0.8981283559407677 
0.03047204024641035 
1.1595102398432648 
0.004469052304724726 
0.0215741167485531 
0.84878142737081 
0.483159372206962 
0.43610637763415006 
0.1383805542001059 
0.1208224369001423 
0.012978339431510541 
0.20023941323134867 
0.005422973518580706 
0.029727163629404973 
-0.00010625468997692889 
0.5070173059267304 
0.9412097720525182 
0.05111960001938136 
0.9995944948177911 
0.12492767065195524 
0.8612164121341458 
0.9981359919843925 
1.0158969661155073 
0.002420935256539416 
0.6291457940472563 
0.001219068980287708 
0.0034168083778987383 
0.183899206232278 
0.27619688398925 
0.9229215846739011 
0.007460735139972475 
0.018218439494526506 
0.0004225617632307157 
1.000146089780694 
0.03925440317956473 
1.166195824720167 
0.22106623570492284 
0.015890863830420574 
0.02408492608601994 
0.0871007638677899 
0.25231975865853495 
0.00020043310885841794 
0.8516447327271326 
0.026983861170035074 
1.001166332669102 
0.7234649108367104 
0.44449576295154275 
0.1828603563426793 
0.1265834982607661 
0.17009940878293897 
1.017059298244266 
0.003232231612826595 
0.00010373045914068368 
0.7613738807196799 
1.0001351433644308 
0.07981882469080516 
0.7239314083830367 
0.995404132955602 
1.0001011234140225 
0.11660436178835829 
0.5548183226474425 
0.0007572564402291701 
0.051429732723574144 
0.5931718582361677 
0.017540872138037015 
0.13875326709294933 
0.7161967134194284 
0.026944580222330743 
1.0004513277527496 
0.005860242514169138 
0.9185615903229604 
0.07079951680215155 
0.9292068525453083 
0.3021430040488305 
0.6306178522099017 
0.006469212802807762 
0.8060537104044219 
0.014444391127737492 
0.057806485854950726 
0.05094759480860837 
0.0033999779547838564 
0.007653790732876067 
0.0653343626060415 
0.8685336965169973 
0.7762817745011426 
0.03349531478934249 
0.014623846971505643 
0.9862674289407763 
0.08981107077900713 
0.26453756305808784 
1.0015233063595217 
0.13718553904769773 
1.1904568176638852 
0.9992488525373971 
0.17561042475043745 
0.980430863051823 
0.99355034624827 
0.02592564698559843 
0.9688252158115539 
0.9962154788373021 
4.2431137556441286e-7 
1.068768535471336 
0.016727453376137038 
0.39930214337910014 
1.0040332538346903 
0.3114947518723822 
0.9776533513255168 
0.1392552710665014 
0.09662370334274911 
0.33097801219854067 
0.8271329469787577 
0.09082524695349446 
-2.6084759154697333e-5 
0.959005692310021 
0.014183802742912045 
0.31587678152399323 
0.9994269183396431 
1.0035448838605825 
0.0004412244298373838 
0.004863401987577413 
0.0003269788079488912 
0.040486511753578494 
0.23712849547085418 
0.39647234926294245 
0.8449922840656204 
0.9166142333656441 
1.0002372319702935 
0.1907786810259801 
0.44098527932836284 
0.17889394983207166 
0.006548889276128502 
0.20822459080261047 
0.06401330806393371 
6.874367073215699e-6 
0.9966858492484141 
0.04690189656043969 
0.06291468863278271 
0.824456662846341 
0.7698233122794833 
0.10092566407662144 
0.02090115251029557 
0.9536921462698463 
0.39243748993633887 
0.9977118955793923 
0.9266693961186127 
0.017038682505699364 
0.6197564101927265 
0.41575191739280304 
1.0000250483266517 
0.9973482607945021 
0.013916312594064012 
0.03685495944870778 
0.9725064391907515 
0.00028343394827105373 
0.40063078328422264 
0.06299018847087254 
0.054931520029407044 
0.029501857007883544 
0.9786069030724166 
1.0012108706338725 
0.6460293372662109 
0.02514859868376992 
0.08215620073721747 
0.9974597034620187 
0.43407915175355316 
4.210627429990741e-6 
1.0014464959517715 
0.9982838155423519 
0.13901408727648287 
0.006001504069917231 
0.7890625068504914 
1.0012495564117763 
0.5891631033888959 
0.0033322179760829564 
0.7001840221838355 
0.4544495569393154 
0.6024430611875962 
0.24702727488252751 
0.10144153063301921 
0.0021943673815842998 
9.531006253191266e-7 
1.018504611879868 
1.1291303144898552 
0.0396085022262204 
0.6037711904488008 
1.023299489057443 
0.5056459151355925 
0.9615657437783354 
0.058788035623356806 
1.0000807202328545 
0.9297668329189238 
0.37289434751613376 
0.0016720345596802362 
-3.2859150219939866e-5 
3.303108512828599e-5 
0.0015988201147571078 
0.5355854726917848 
