# vtk DataFile Version 3.0 
Unstructured Grid 
ASCII 
DATASET UNSTRUCTURED_GRID
POINTS 437 float 
0.5 0 0  
1 0 0  
1 1 0  
0 1 0  
0 0.5 0  
0.5 0.5 0  
0.55 0 0  
0.6 0 0  
0.65 0 0  
0.7 0 0  
0.75 0 0  
0.8 0 0  
0.85 0 0  
0.9 0 0  
0.95 0 0  
1 0.05 0  
1 0.1 0  
1 0.15 0  
1 0.2 0  
1 0.25 0  
1 0.3 0  
1 0.35 0  
1 0.4 0  
1 0.45 0  
1 0.5 0  
1 0.55 0  
1 0.6 0  
1 0.65 0  
1 0.7 0  
1 0.75 0  
1 0.8 0  
1 0.85 0  
1 0.9 0  
1 0.95 0  
0.95 1 0  
0.9 1 0  
0.85 1 0  
0.8 1 0  
0.75 1 0  
0.7 1 0  
0.65 1 0  
0.6 1 0  
0.55 1 0  
0.5 1 0  
0.45 1 0  
0.4 1 0  
0.35 1 0  
0.3 1 0  
0.25 1 0  
0.2 1 0  
0.15 1 0  
0.1 1 0  
0.05 1 0  
0 0.95 0  
0 0.9 0  
0 0.85 0  
0 0.8 0  
0 0.75 0  
0 0.7 0  
0 0.65 0  
0 0.6 0  
0 0.55 0  
0.05 0.5 0  
0.1 0.5 0  
0.15 0.5 0  
0.2 0.5 0  
0.25 0.5 0  
0.3 0.5 0  
0.35 0.5 0  
0.4 0.5 0  
0.45 0.5 0  
0.5 0.45 0  
0.5 0.4 0  
0.5 0.35 0  
0.5 0.3 0  
0.5 0.25 0  
0.5 0.2 0  
0.5 0.15 0  
0.5 0.1 0  
0.5 0.05 0  
0.7067263 0.70899034 0  
0.7462131 0.3784907 0  
0.275 0.75 0  
0.49203128 0.7759238 0  
0.8004979 0.19051445 0  
0.8169689 0.5569046 0  
0.8379451 0.8232311 0  
0.6651841 0.5643974 0  
0.6586247 0.24525054 0  
0.39886913 0.6556846 0  
0.6357807 0.845222 0  
0.15416667 0.65416664 0  
0.15469871 0.8490102 0  
0.37710553 0.86057764 0  
0.8530772 0.68242943 0  
0.5399757 0.6405682 0  
0.87012184 0.30832314 0  
0.6218386 0.41301885 0  
0.8712292 0.43948308 0  
0.6270563 0.12650847 0  
0.2721758 0.6146517 0  
0.26237586 0.88543755 0  
0.5290535 0.8872315 0  
0.8881946 0.111421056 0  
0.59896 0.74404466 0  
0.73382306 0.10964348 0  
0.7398329 0.9080902 0  
0.7300285 0.48150903 0  
0.10457365 0.74805343 0  
0.5998279 0.32869247 0  
0.4013559 0.7541197 0  
0.8998196 0.8998196 0  
0.7425495 0.27230954 0  
0.90489763 0.5939467 0  
0.7320272 0.6158908 0  
0.90734863 0.2194375 0  
0.90656686 0.7697009 0  
0.74241894 0.80003285 0  
0.632743 0.65343165 0  
0.46277094 0.5961966 0  
0.08243797 0.5905297 0  
0.08731128 0.91282296 0  
0.44904137 0.91765434 0  
0.57323986 0.55955005 0  
0.91513485 0.5138866 0  
0.1836753 0.7418762 0  
0.5856236 0.20050126 0  
0.35569865 0.5818674 0  
0.4717501 0.69469833 0  
0.8203882 0.9111774 0  
0.19848472 0.58481354 0  
0.7232736 0.19122238 0  
0.6770922 0.32269323 0  
0.80834067 0.08196056 0  
0.9230353 0.37846187 0  
0.78589296 0.72803205 0  
0.18855475 0.91950625 0  
0.6022492 0.9193816 0  
0.07701049 0.6750049 0  
0.07779311 0.8285882 0  
0.33496442 0.69013095 0  
0.22651649 0.8130275 0  
0.33345127 0.9266774 0  
0.56306595 0.81706417 0  
0.79485846 0.43853834 0  
0.57445616 0.4795266 0  
0.30524647 0.8211264 0  
0.8098617 0.6293174 0  
0.66652167 0.7748195 0  
0.44695833 0.83554715 0  
0.58482915 0.07054804 0  
0.92909133 0.6757825 0  
0.82267326 0.3699049 0  
0.6750539 0.9307201 0  
0.6726681 0.069687515 0  
0.22284219 0.6692463 0  
0.9308683 0.2891792 0  
0.930985 0.8368545 0  
0.57183284 0.395735 0  
0.56719327 0.267426 0  
0.8295321 0.2563277 0  
0.702163 0.41558313 0  
0.6631986 0.48596716 0  
0.5332523 0.7285968 0  
0.9389338 0.15767792 0  
0.9392354 0.06812419 0  
0.74606097 0.5461627 0  
0.668234 0.16889203 0  
0.82325417 0.7682245 0  
0.86888987 0.49205798 0  
0.9373707 0.42941386 0  
0.27492446 0.5574591 0  
0.7591465 0.66997904 0  
0.5625162 0.14507365 0  
0.698026 0.84136397 0  
0.33979788 0.7690552 0  
0.4100188 0.5701878 0  
0.86549294 0.1689855 0  
0.15718786 0.7919015 0  
0.14695793 0.56156343 0  
0.49887148 0.9348564 0  
0.39005366 0.9400572 0  
0.2756479 0.94468254 0  
0.79987353 0.31934652 0  
0.79108334 0.48730215 0  
0.7893297 0.13692713 0  
0.8729007 0.040251754 0  
0.65027624 0.3686311 0  
0.94156647 0.94156647 0  
0.77622527 0.94636667 0  
0.6486954 0.7048788 0  
0.5761476 0.67128414 0  
0.77190053 0.83744544 0  
0.60624254 0.5986166 0  
0.7550012 0.06245598 0  
0.50134873 0.8411101 0  
0.68467325 0.64302444 0  
0.053087775 0.72582155 0  
0.139265 0.9408418 0  
0.95088 0.7243738 0  
0.9432815 0.5566516 0  
0.86394966 0.9434744 0  
0.6805639 0.11338498 0  
0.20661557 0.866214 0  
0.5136965 0.55900043 0  
0.61441326 0.79211885 0  
0.5533345 0.9442417 0  
0.86748934 0.5476702 0  
0.45131102 0.7447211 0  
0.9522712 0.6298776 0  
0.49115333 0.6454875 0  
0.57800794 0.87019897 0  
0.14164469 0.70855445 0  
0.38005453 0.7027296 0  
0.27368295 0.69533986 0  
0.049783085 0.62717026 0  
0.049414515 0.87215096 0  
0.62649876 0.043947894 0  
0.8786532 0.85014766 0  
0.34885973 0.6374005 0  
0.5949198 0.5178657 0  
0.86131465 0.63502216 0  
0.79260343 0.80256337 0  
0.7014114 0.5166631 0  
0.40068594 0.814811 0  
0.55082065 0.3157755 0  
0.6816506 0.59935296 0  
0.3207115 0.869895 0  
0.05274013 0.55274016 0  
0.05274013 0.94725984 0  
0.6400825 0.29462123 0  
0.70826656 0.24477807 0  
0.7619463 0.22610597 0  
0.052983053 0.7814943 0  
0.7439376 0.3234126 0  
0.95078784 0.88415176 0  
0.9592077 0.22841401 0  
0.84777594 0.1277937 0  
0.9565159 0.32835326 0  
0.87450755 0.38491434 0  
0.8723333 0.26038516 0  
0.2202579 0.9566307 0  
0.5511588 0.44135624 0  
0.89094824 0.71469563 0  
0.14088513 0.8952839 0  
0.9426072 0.110777475 0  
0.5598569 0.76635987 0  
0.7797588 0.58802515 0  
0.73662144 0.7500704 0  
0.80291736 0.6806566 0  
0.3250526 0.545103 0  
0.47699997 0.87967384 0  
0.109880045 0.6315259 0  
0.9565706 0.4731244 0  
0.9520049 0.7877815 0  
0.41847795 0.61317724 0  
0.7469016 0.43319932 0  
0.6651573 0.8785795 0  
0.6980314 0.36945662 0  
0.22855084 0.7651636 0  
0.5426688 0.22467211 0  
0.85128033 0.20839585 0  
0.6080812 0.24411796 0  
0.22691919 0.54427826 0  
0.42439926 0.70143026 0  
0.87087065 0.7973803 0  
0.71672744 0.95107883 0  
0.83949435 0.5922577 0  
0.34957552 0.8123493 0  
0.51278394 0.6086165 0  
0.15431206 0.6098422 0  
0.6343587 0.9556687 0  
0.8392547 0.8737899 0  
0.7109742 0.042080052 0  
0.23100297 0.62427217 0  
0.5484106 0.51544434 0  
0.42224586 0.8707757 0  
0.10496536 0.8650706 0  
0.11225842 0.7941315 0  
0.429402 0.95576584 0  
0.46295157 0.54450357 0  
0.10164671 0.5457688 0  
0.5822864 0.63314605 0  
0.37762833 0.53745234 0  
0.8275239 0.04005421 0  
0.8323437 0.41491747 0  
0.44464156 0.7891728 0  
0.90912354 0.4597161 0  
0.26412204 0.8401569 0  
0.26712763 0.7957094 0  
0.62024623 0.47111306 0  
0.7770051 0.8863074 0  
0.8221126 0.9602037 0  
0.5225849 0.68752897 0  
0.76535124 0.17708147 0  
0.31416538 0.59776855 0  
0.53816175 0.1840494 0  
0.6130816 0.16364412 0  
0.7091263 0.2886451 0  
0.22773811 0.71831167 0  
0.9012153 0.33257928 0  
0.18447237 0.53813106 0  
0.18472914 0.6879896 0  
0.82954866 0.46472684 0  
0.17961553 0.9633957 0  
0.36685705 0.9008585 0  
0.44457012 0.65111244 0  
0.8385268 0.7209097 0  
0.7115207 0.14475605 0  
0.09503517 0.95690435 0  
0.7880896 0.39571288 0  
0.96492094 0.38520482 0  
0.5563232 0.6018296 0  
0.31393582 0.73382735 0  
0.49519077 0.7332941 0  
0.9629974 0.5187325 0  
0.5415193 0.100338124 0  
0.9036664 0.6412981 0  
0.3244769 0.96671104 0  
0.2306904 0.9144942 0  
0.035453074 0.6754281 0  
0.035497267 0.82603335 0  
0.18655832 0.81865835 0  
0.54264426 0.042344484 0  
0.70526683 0.56849337 0  
0.5891552 0.9625355 0  
0.09987184 0.7080552 0  
0.6646015 0.4450029 0  
0.62016 0.87781084 0  
0.68724763 0.7468739 0  
0.6794575 0.21179324 0  
0.66522187 0.8161647 0  
0.5348051 0.47726545 0  
0.77173877 0.09966874 0  
0.30060795 0.6489708 0  
0.5900102 0.4408019 0  
0.6355171 0.20569986 0  
0.19041659 0.6358006 0  
0.7817328 0.35663295 0  
0.85770756 0.080021024 0  
0.90471005 0.95934963 0  
0.53831446 0.36966592 0  
0.24070142 0.5850949 0  
0.63882816 0.744377 0  
0.6058876 0.3669202 0  
0.9048971 0.4124307 0  
0.5905425 0.11210937 0  
0.6993429 0.7882209 0  
0.5656613 0.9052634 0  
0.7704826 0.63249016 0  
0.8522724 0.33958897 0  
0.296919 0.9075354 0  
0.9667555 0.83175755 0  
0.5987462 0.28922248 0  
0.11813834 0.6749375 0  
0.38161784 0.6131642 0  
0.6618531 0.40398476 0  
0.6370484 0.08659111 0  
0.038074076 0.5894313 0  
0.038074076 0.9105687 0  
0.96839094 0.6753669 0  
0.14384495 0.75045496 0  
0.5411818 0.84978336 0  
0.52673554 0.8019128 0  
0.7657028 0.46494102 0  
0.961649 0.03835645 0  
0.675 0.030283678 0  
0.7518289 0.70853835 0  
0.96001375 0.18740793 0  
0.9678583 0.27471802 0  
0.67516285 0.9681792 0  
0.59831095 0.83401567 0  
0.9073243 0.5525552 0  
0.8611736 0.90393615 0  
0.5795172 0.033180732 0  
0.5208923 0.96885955 0  
0.47072348 0.967185 0  
0.6462471 0.6071309 0  
0.52937275 0.275 0  
0.26006237 0.6504962 0  
0.73740774 0.8595233 0  
0.8331797 0.2957258 0  
0.47728643 0.80960673 0  
0.9208824 0.037562877 0  
0.9040851 0.18120942 0  
0.70257896 0.8997159 0  
0.97050655 0.074435726 0  
0.36017016 0.7398202 0  
0.7106061 0.0794504 0  
0.63714504 0.33196637 0  
0.890113 0.67338765 0  
0.17423429 0.88494647 0  
0.70125586 0.4576201 0  
0.9066001 0.8085411 0  
0.71885514 0.6719225 0  
0.36035147 0.9661565 0  
0.42251006 0.5290217 0  
0.9723008 0.4259288 0  
0.64294964 0.51980066 0  
0.78817964 0.03501066 0  
0.570402 0.7144006 0  
0.12055232 0.8290842 0  
0.19649777 0.7861254 0  
0.67484623 0.27905807 0  
0.36568695 0.6714864 0  
0.97151566 0.9645467 0  
0.8305832 0.16528471 0  
0.7877058 0.2744767 0  
0.4071035 0.9074601 0  
0.8660333 0.7541822 0  
0.75281197 0.5088334 0  
0.80377316 0.22890417 0  
0.7842619 0.53388166 0  
0.80658257 0.8577738 0  
0.8967399 0.28827333 0  
0.82637364 0.5137572 0  
0.9234294 0.25649244 0  
0.30519488 0.78316474 0  
0.8318979 0.6562427 0  
0.121106885 0.5892234 0  
0.97378284 0.925 0  
0.903588 0.07469306 0  
0.5322612 0.41135144 0  
0.63939583 0.91243213 0  
0.6109627 0.7054028 0  
0.57147133 0.35136378 0  
0.6785297 0.6806924 0  
0.90144104 0.14535177 0  
0.7748313 0.76722825 0  
0.7498974 0.14247963 0  
0.61986715 0.56109023 0  
0.36870277 0.77900666 0  
0.9640754 0.59000534 0  
0.9105131 0.86591715 0  
0.027604798 0.5276048 0  
0.027604798 0.9723952 0  
0.5214134 0.7612175 0  
CELLS 792 3168 
3 407 234 112 
3 413 222 86 
3 183 234 407 
3 108 278 233 
3 97 158 344 
3 124 207 169 
[...]
POINT_DATA 437 
SCALARS T float 
LOOKUP_TABLE default 
0.5000000000012897 
0.5000000000016752 
2.4034391520490798e-21 
-7.200180451230627e-25 
-2.3474696172363726e-23 
1.493906183806199e-12 
0.99999999999965 
1.0000000000000078 
1.0000000000000024 
0.9999999999999991 
0.9999999999999925 
0.999999999999993 
1.000000000000015 
1.0000000000000302 
0.999999999999531 
4.592360743115081e-12 
2.309356707885506e-12 
9.84818503018186e-13 
7.080285325876311e-13 
3.629001416958424e-13 
1.2982156837523485e-13 
6.18537484383268e-14 
3.616190596702168e-14 
-1.1720349652145304e-14 
6.051199636508172e-15 
-2.650695721190082e-14 
-1.983565778067437e-15 
-1.2856638155693018e-15 
7.822590770885197e-17 
9.668321200529749e-17 
3.9702199600522934e-17 
3.246715932970745e-18 
1.287930209470414e-18 
1.1436179173868925e-19 
7.80099935727707e-20 
-2.7152044489007385e-19 
-7.299523862836172e-19 
1.582963105791122e-19 
-1.985842251947368e-17 
6.636274514986699e-18 
7.41135382749702e-18 
1.5818763307379235e-17 
7.116075449857242e-18 
1.1332025146057442e-17 
4.079876289136702e-18 
1.559403834595182e-18 
5.198675667084787e-19 
1.6087681008797747e-19 
-2.381762947294591e-21 
2.0660938546322292e-22 
1.2732753331252799e-22 
-8.405855769318495e-24 
-9.08208340292656e-24 
-4.209605679769911e-24 
5.8477411606337125e-24 
3.239360836693374e-23 
1.3238283367585047e-22 
2.9531457426470616e-22 
2.3058233676754544e-22 
-9.61209842363307e-24 
-2.1350554559642178e-22 
-1.966179706524201e-22 
-1.282417887825511e-21 
-1.2845629675763025e-21 
-4.513425374299085e-21 
3.440219065701513e-20 
1.8327555439772596e-18 
3.017989837091514e-18 
-3.9507958024876225e-17 
-1.649575395350063e-16 
-1.0435057219473725e-14 
2.7121861356445206e-12 
3.4452950558017057e-12 
4.307278643821453e-12 
5.0285053629949316e-12 
4.53966383862621e-12 
4.041662137385346e-12 
4.140939204159495e-12 
3.0931653217450414e-12 
4.579429541986499e-12 
0.020284263112918137 
0.8654202113101584 
1.4708769416923587e-6 
0.0005137492905549596 
1.0003563696377296 
0.19127698682654903 
3.734803307269224e-5 
0.18582160483709015 
0.9748671402630406 
0.0008669704386454819 
0.0004226664085048283 
-1.567430752905178e-8 
-5.756492405548922e-10 
3.235783954807007e-6 
0.009179844063354132 
0.018262149541170013 
0.8020231032621186 
0.5587761189581293 
0.394621972856656 
0.9963959285790133 
-2.0537832284179047e-6 
6.9539519051591546e-9 
4.0952261643162983e-5 
1.0074641511418676 
0.005038852397755427 
1.00029393906545 
1.5599465132204804e-5 
0.5162762376371407 
-5.842688267390667e-10 
0.7712608827102796 
0.00010060333879982013 
-4.6023174231490764e-7 
0.985053614813409 
0.016923661381089243 
0.11114574105500508 
0.8265507226180475 
4.5540912377229514e-5 
0.0013587254596051695 
0.0396977335090655 
0.010180695742691384 
1.8663729484055536e-10 
9.760496434086119e-12 
4.384721848807032e-6 
0.09547413277068835 
0.0666484207348929 
-1.4662317633527989e-8 
0.9583088643444074 
3.944563923426352e-5 
0.0020866730763304912 
-1.462336767192177e-6 
6.230596443266123e-9 
0.9989032390241331 
0.903360053878242 
0.9971745344526793 
0.27304610394487855 
0.007962959691711348 
1.331808223691929e-10 
1.8557590759277823e-5 
-5.99218314341061e-12 
3.99049998022833e-12 
6.390676829716884e-5 
2.4595908337932674e-9 
1.475056643272556e-7 
0.0005157540229792858 
0.6638714712175477 
0.2423517468341857 
8.209696660581963e-7 
0.05932397823786272 
0.0038355120516224347 
4.5432862298197054e-5 
0.9978524884603575 
0.0008598592454597972 
0.8275036327770491 
9.905556295450052e-6 
0.9992562011236705 
1.463535827106257e-8 
0.44943783159398226 
-2.194504297699358e-6 
0.49394726517570253 
0.8236351920068401 
0.9838930040225281 
0.7113190682645887 
0.4032061299680549 
0.0030442640205148052 
0.7515189255151709 
0.9551679896217787 
0.2844485229992798 
0.9997263137919011 
0.0009924259585688735 
0.23661920596503389 
0.11127076073511244 
-3.2333385891323354e-7 
0.040114889524172484 
0.9444096941225762 
0.0004140625824582302 
1.2006249490472027e-5 
0.0004945581498009647 
0.9854431520508427 
-2.4522186248178966e-9 
6.964565611567877e-9 
5.421118881908926e-6 
5.633134776957373e-7 
9.50698713470231e-9 
0.9610684600158664 
0.4758745116449188 
1.0002040128874055 
0.9946193030221463 
0.759092007180877 
1.074809005169167e-8 
-1.874783851722964e-6 
0.017371829514510898 
0.01676710855542219 
0.0002186809402876981 
0.07648373230566231 
1.0011810399017451 
0.00011523893743248716 
0.06685021293750976 
4.5061130526270055e-11 
2.2488684124039647e-11 
-7.609767773236291e-6 
0.0114857926347645 
-1.764336353799728e-7 
1.0008284644588452 
-1.611949556743168e-9 
0.049299305067541835 
0.0017636740834869687 
6.612154369088344e-6 
0.11132762348642021 
0.0004461686176558105 
0.0008201877408267087 
0.008154020838642476 
0.00014196821291743254 
-4.566588795345556e-9 
0.00019812904715601256 
3.4984337292579792e-6 
5.1017356935862103e-11 
3.800964949104018e-12 
0.9989218001926286 
-2.584391161901571e-6 
0.00014975497052000514 
0.1887158448398632 
0.024153964737216517 
0.0006447005821785828 
0.36005619532227195 
2.0563966905646393e-5 
0.7840765300822415 
0.12887250731879743 
2.2748623363492108e-7 
-4.6531899571604755e-11 
-5.119049749566473e-14 
0.9164244234946978 
0.990621762127391 
0.9984199243649476 
2.4800938488311447e-11 
0.9579232507398594 
-2.612839396665495e-7 
0.3344498976971698 
1.0081072025427302 
0.16802975275726786 
0.5629798397768875 
0.8978038026554559 
7.09502049364248e-10 
0.3425725899847779 
0.0007573551991217481 
1.3945945501779561e-11 
0.8487755199036733 
0.001890983911941002 
0.15637194457868225 
0.006098622136411086 
0.020723512634477158 
-4.5881710707042085e-7 
2.3661823190934525e-5 
5.52632602099929e-10 
0.02650442666731078 
-1.108520852223792e-5 
0.0027650827351071135 
0.7083043049944656 
0.00011745225896050793 
0.832820751006597 
7.707237116889775e-8 
0.8084115952990903 
0.9982172817571037 
0.9649130492864876 
6.283942064054087e-8 
0.0006400129957996522 
2.4702201435666258e-5 
1.6764800133632505e-6 
0.08506571505902644 
4.571498018531574e-6 
0.022491931377273656 
1.2512911266033137e-9 
4.30721760781259e-6 
-2.2722918049609743e-6 
1.0002192877535445 
-4.4405855882360315e-7 
0.1496330327471975 
9.658258022203422e-6 
-1.1063194566400871e-11 
-3.6368511975126605e-10 
7.871763629987064e-7 
0.00481530699168642 
2.1479843652539511e-10 
0.035931374818711184 
3.0199770237443836e-5 
1.0011928904159033 
0.6517464571248398 
0.00013172238549455132 
0.16374389295130698 
6.408144109461305e-8 
2.324690719222128e-7 
0.3627033096104296 
9.821056231568995e-6 
3.636000261813593e-8 
0.005770117685469345 
0.9994871802194645 
-1.8815023859942235e-6 
0.7099183249077012 
0.9911447746519133 
0.9641006243000825 
1.3823749375355554e-7 
0.5516952095021729 
2.0377960049835196e-8 
-2.747690671049326e-8 
0.4737714346869127 
9.696535646642475e-11 
9.035663453809641e-7 
0.0028586642470276044 
0.004059417675612698 
0.9999086355290395 
8.927295255465705e-13 
0.8207148135139716 
0.06988173548662083 
0.043065756180662856 
1.1163539066432803e-5 
0.0014166699122193731 
0.005143194363891226 
0.8050204740901812 
0.0059440161176556195 
4.2884775579180795e-8 
8.975141826138302e-10 
1.4778544510120444e-11 
6.461661533714806e-12 
-3.459889457221659e-9 
0.8690513782977359 
0.21059874021611413 
2.5982081256151108e-6 
-3.15254668862331e-10 
0.5412101688859865 
0.0001214478480437332 
0.008340955423273113 
0.9936210396645845 
0.0011096615347151134 
0.21531551213299244 
0.9992964558855265 
1.6638375406375642e-5 
0.388892379939056 
0.984090164340694 
-9.453123286161423e-8 
0.9103635035571286 
0.9962067339339232 
-3.27372383124516e-8 
0.5485150683160874 
-2.4032373249767956e-7 
0.006785904029759018 
0.6783317542230315 
0.29572508602164377 
0.977633288244517 
0.0024034440883695645 
4.4144195767680356e-5 
0.0772354248521769 
0.8124010431152637 
4.319191518484349e-8 
-1.5246665880107373e-6 
0.8571478359773759 
-2.0873013176823654e-9 
0.000627632794057068 
0.6729546449918316 
1.0034305484077106 
-1.4765764065895164e-11 
8.975877983498319e-13 
5.5118771572946766e-5 
-4.74658592036625e-9 
0.00016185707237244073 
0.0004878788022713758 
0.5860121622550652 
0.9166099078990927 
1.0002688940291744 
0.016926556073079097 
0.4411038095762328 
0.17879388561299747 
1.264154620086941e-6 
0.0005345537998632822 
0.042288862653014105 
-8.184073708295941e-7 
0.9967353177844648 
2.0839530435000564e-6 
1.0169372524001307e-6 
0.09447255879213416 
0.6470030501884482 
1.6731208013494816e-6 
0.00016615759911837563 
0.9469195454923077 
0.00017236490265956907 
0.997703687197454 
0.9265856055099198 
3.719684672946547e-5 
0.6197641119428544 
4.516502570339698e-5 
0.9999962069775259 
0.8343525545004803 
0.00374390918337938 
-2.719400392731634e-10 
0.566284810928803 
8.13528253484938e-6 
0.04344335066141767 
1.367722893504785e-7 
0.0004571656686643453 
0.02825485060414757 
0.26519970328073833 
1.0012409327475635 
0.006842376470007676 
-2.0480098382717933e-10 
7.523196661645274e-10 
0.9541417918742642 
0.00028498620512275584 
-9.188051437371434e-9 
1.0011410738181081 
0.9929203012061155 
2.42934388884141e-6 
0.0005860798596150778 
0.4271249143317367 
0.9994191262531196 
0.30764445716609734 
3.018432715212609e-5 
0.6984710963580558 
0.3020089111950514 
0.6022367750817634 
2.1237365042269294e-6 
0.026122633414791638 
1.6874496847290338e-9 
-2.516609372719242e-8 
1.0185188923752657 
0.38901818452103903 
3.471196304873915e-5 
0.013094316007575772 
0.6660012834094483 
0.03410358205910223 
0.961612385107335 
0.0030999279183398336 
0.9997494167151975 
0.14250226331684487 
2.3801185774401096e-5 
0.0013073024132562807 
-1.3507864733897093e-6 
-1.1005287967868925e-11 
-1.297414220913162e-13 
0.0012351174916386113 
