# vtk DataFile Version 3.0 
Unstructured Grid 
ASCII 
DATASET UNSTRUCTURED_GRID
POINTS 437 float 
0.5 0 0  
1 0 0  
1 1 0  
0 1 0  
0 0.5 0  
0.5 0.5 0  
0.55 0 0  
0.6 0 0  
0.65 0 0  
0.7 0 0  
0.75 0 0  
0.8 0 0  
0.85 0 0  
0.9 0 0  
0.95 0 0  
1 0.05 0  
1 0.1 0  
1 0.15 0  
1 0.2 0  
1 0.25 0  
1 0.3 0  
1 0.35 0  
1 0.4 0  
1 0.45 0  
1 0.5 0  
1 0.55 0  
1 0.6 0  
1 0.65 0  
1 0.7 0  
1 0.75 0  
1 0.8 0  
1 0.85 0  
1 0.9 0  
1 0.95 0  
0.95 1 0  
0.9 1 0  
0.85 1 0  
0.8 1 0  
0.75 1 0  
0.7 1 0  
0.65 1 0  
0.6 1 0  
0.55 1 0  
0.5 1 0  
0.45 1 0  
0.4 1 0  
0.35 1 0  
0.3 1 0  
0.25 1 0  
0.2 1 0  
0.15 1 0  
0.1 1 0  
0.05 1 0  
0 0.95 0  
0 0.9 0  
0 0.85 0  
0 0.8 0  
0 0.75 0  
0 0.7 0  
0 0.65 0  
0 0.6 0  
0 0.55 0  
0.05 0.5 0  
0.1 0.5 0  
0.15 0.5 0  
0.2 0.5 0  
0.25 0.5 0  
0.3 0.5 0  
0.35 0.5 0  
0.4 0.5 0  
0.45 0.5 0  
0.5 0.45 0  
0.5 0.4 0  
0.5 0.35 0  
0.5 0.3 0  
0.5 0.25 0  
0.5 0.2 0  
0.5 0.15 0  
0.5 0.1 0  
0.5 0.05 0  
0.7067263 0.70899034 0  
0.7462131 0.3784907 0  
0.275 0.75 0  
0.49203128 0.7759238 0  
0.8004979 0.19051445 0  
0.8169689 0.5569046 0  
0.8379451 0.8232311 0  
0.6651841 0.5643974 0  
0.6586247 0.24525054 0  
0.39886913 0.6556846 0  
0.6357807 0.845222 0  
0.15416667 0.65416664 0  
0.15469871 0.8490102 0  
0.37710553 0.86057764 0  
0.8530772 0.68242943 0  
0.5399757 0.6405682 0  
0.87012184 0.30832314 0  
0.6218386 0.41301885 0  
0.8712292 0.43948308 0  
0.6270563 0.12650847 0  
0.2721758 0.6146517 0  
0.26237586 0.88543755 0  
0.5290535 0.8872315 0  
0.8881946 0.111421056 0  
0.59896 0.74404466 0  
0.73382306 0.10964348 0  
0.7398329 0.9080902 0  
0.7300285 0.48150903 0  
0.10457365 0.74805343 0  
0.5998279 0.32869247 0  
0.4013559 0.7541197 0  
0.8998196 0.8998196 0  
0.7425495 0.27230954 0  
0.90489763 0.5939467 0  
0.7320272 0.6158908 0  
0.90734863 0.2194375 0  
0.90656686 0.7697009 0  
0.74241894 0.80003285 0  
0.632743 0.65343165 0  
0.46277094 0.5961966 0  
0.08243797 0.5905297 0  
0.08731128 0.91282296 0  
0.44904137 0.91765434 0  
0.57323986 0.55955005 0  
0.91513485 0.5138866 0  
0.1836753 0.7418762 0  
0.5856236 0.20050126 0  
0.35569865 0.5818674 0  
0.4717501 0.69469833 0  
0.8203882 0.9111774 0  
0.19848472 0.58481354 0  
0.7232736 0.19122238 0  
0.6770922 0.32269323 0  
0.80834067 0.08196056 0  
0.9230353 0.37846187 0  
0.78589296 0.72803205 0  
0.18855475 0.91950625 0  
0.6022492 0.9193816 0  
0.07701049 0.6750049 0  
0.07779311 0.8285882 0  
0.33496442 0.69013095 0  
0.22651649 0.8130275 0  
0.33345127 0.9266774 0  
0.56306595 0.81706417 0  
0.79485846 0.43853834 0  
0.57445616 0.4795266 0  
0.30524647 0.8211264 0  
0.8098617 0.6293174 0  
0.66652167 0.7748195 0  
0.44695833 0.83554715 0  
0.58482915 0.07054804 0  
0.92909133 0.6757825 0  
0.82267326 0.3699049 0  
0.6750539 0.9307201 0  
0.6726681 0.069687515 0  
0.22284219 0.6692463 0  
0.9308683 0.2891792 0  
0.930985 0.8368545 0  
0.57183284 0.395735 0  
0.56719327 0.267426 0  
0.8295321 0.2563277 0  
0.702163 0.41558313 0  
0.6631986 0.48596716 0  
0.5332523 0.7285968 0  
0.9389338 0.15767792 0  
0.9392354 0.06812419 0  
0.74606097 0.5461627 0  
0.668234 0.16889203 0  
0.82325417 0.7682245 0  
0.86888987 0.49205798 0  
0.9373707 0.42941386 0  
0.27492446 0.5574591 0  
0.7591465 0.66997904 0  
0.5625162 0.14507365 0  
0.698026 0.84136397 0  
0.33979788 0.7690552 0  
0.4100188 0.5701878 0  
0.86549294 0.1689855 0  
0.15718786 0.7919015 0  
0.14695793 0.56156343 0  
0.49887148 0.9348564 0  
0.39005366 0.9400572 0  
0.2756479 0.94468254 0  
0.79987353 0.31934652 0  
0.79108334 0.48730215 0  
0.7893297 0.13692713 0  
0.8729007 0.040251754 0  
0.65027624 0.3686311 0  
0.94156647 0.94156647 0  
0.77622527 0.94636667 0  
0.6486954 0.7048788 0  
0.5761476 0.67128414 0  
0.77190053 0.83744544 0  
0.60624254 0.5986166 0  
0.7550012 0.06245598 0  
0.50134873 0.8411101 0  
0.68467325 0.64302444 0  
0.053087775 0.72582155 0  
0.139265 0.9408418 0  
0.95088 0.7243738 0  
0.9432815 0.5566516 0  
0.86394966 0.9434744 0  
0.6805639 0.11338498 0  
0.20661557 0.866214 0  
0.5136965 0.55900043 0  
0.61441326 0.79211885 0  
0.5533345 0.9442417 0  
0.86748934 0.5476702 0  
0.45131102 0.7447211 0  
0.9522712 0.6298776 0  
0.49115333 0.6454875 0  
0.57800794 0.87019897 0  
0.14164469 0.70855445 0  
0.38005453 0.7027296 0  
0.27368295 0.69533986 0  
0.049783085 0.62717026 0  
0.049414515 0.87215096 0  
0.62649876 0.043947894 0  
0.8786532 0.85014766 0  
0.34885973 0.6374005 0  
0.5949198 0.5178657 0  
0.86131465 0.63502216 0  
0.79260343 0.80256337 0  
0.7014114 0.5166631 0  
0.40068594 0.814811 0  
0.55082065 0.3157755 0  
0.6816506 0.59935296 0  
0.3207115 0.869895 0  
0.05274013 0.55274016 0  
0.05274013 0.94725984 0  
0.6400825 0.29462123 0  
0.70826656 0.24477807 0  
0.7619463 0.22610597 0  
0.052983053 0.7814943 0  
0.7439376 0.3234126 0  
0.95078784 0.88415176 0  
0.9592077 0.22841401 0  
0.84777594 0.1277937 0  
0.9565159 0.32835326 0  
0.87450755 0.38491434 0  
0.8723333 0.26038516 0  
0.2202579 0.9566307 0  
0.5511588 0.44135624 0  
0.89094824 0.71469563 0  
0.14088513 0.8952839 0  
0.9426072 0.110777475 0  
0.5598569 0.76635987 0  
0.7797588 0.58802515 0  
0.73662144 0.7500704 0  
0.80291736 0.6806566 0  
0.3250526 0.545103 0  
0.47699997 0.87967384 0  
0.109880045 0.6315259 0  
0.9565706 0.4731244 0  
0.9520049 0.7877815 0  
0.41847795 0.61317724 0  
0.7469016 0.43319932 0  
0.6651573 0.8785795 0  
0.6980314 0.36945662 0  
0.22855084 0.7651636 0  
0.5426688 0.22467211 0  
0.85128033 0.20839585 0  
0.6080812 0.24411796 0  
0.22691919 0.54427826 0  
0.42439926 0.70143026 0  
0.87087065 0.7973803 0  
0.71672744 0.95107883 0  
0.83949435 0.5922577 0  
0.34957552 0.8123493 0  
0.51278394 0.6086165 0  
0.15431206 0.6098422 0  
0.6343587 0.9556687 0  
0.8392547 0.8737899 0  
0.7109742 0.042080052 0  
0.23100297 0.62427217 0  
0.5484106 0.51544434 0  
0.42224586 0.8707757 0  
0.10496536 0.8650706 0  
0.11225842 0.7941315 0  
0.429402 0.95576584 0  
0.46295157 0.54450357 0  
0.10164671 0.5457688 0  
0.5822864 0.63314605 0  
0.37762833 0.53745234 0  
0.8275239 0.04005421 0  
0.8323437 0.41491747 0  
0.44464156 0.7891728 0  
0.90912354 0.4597161 0  
0.26412204 0.8401569 0  
0.26712763 0.7957094 0  
0.62024623 0.47111306 0  
0.7770051 0.8863074 0  
0.8221126 0.9602037 0  
0.5225849 0.68752897 0  
0.76535124 0.17708147 0  
0.31416538 0.59776855 0  
0.53816175 0.1840494 0  
0.6130816 0.16364412 0  
0.7091263 0.2886451 0  
0.22773811 0.71831167 0  
0.9012153 0.33257928 0  
0.18447237 0.53813106 0  
0.18472914 0.6879896 0  
0.82954866 0.46472684 0  
0.17961553 0.9633957 0  
0.36685705 0.9008585 0  
0.44457012 0.65111244 0  
0.8385268 0.7209097 0  
0.7115207 0.14475605 0  
0.09503517 0.95690435 0  
0.7880896 0.39571288 0  
0.96492094 0.38520482 0  
0.5563232 0.6018296 0  
0.31393582 0.73382735 0  
0.49519077 0.7332941 0  
0.9629974 0.5187325 0  
0.5415193 0.100338124 0  
0.9036664 0.6412981 0  
0.3244769 0.96671104 0  
0.2306904 0.9144942 0  
0.035453074 0.6754281 0  
0.035497267 0.82603335 0  
0.18655832 0.81865835 0  
0.54264426 0.042344484 0  
0.70526683 0.56849337 0  
0.5891552 0.9625355 0  
0.09987184 0.7080552 0  
0.6646015 0.4450029 0  
0.62016 0.87781084 0  
0.68724763 0.7468739 0  
0.6794575 0.21179324 0  
0.66522187 0.8161647 0  
0.5348051 0.47726545 0  
0.77173877 0.09966874 0  
0.30060795 0.6489708 0  
0.5900102 0.4408019 0  
0.6355171 0.20569986 0  
0.19041659 0.6358006 0  
0.7817328 0.35663295 0  
0.85770756 0.080021024 0  
0.90471005 0.95934963 0  
0.53831446 0.36966592 0  
0.24070142 0.5850949 0  
0.63882816 0.744377 0  
0.6058876 0.3669202 0  
0.9048971 0.4124307 0  
0.5905425 0.11210937 0  
0.6993429 0.7882209 0  
0.5656613 0.9052634 0  
0.7704826 0.63249016 0  
0.8522724 0.33958897 0  
0.296919 0.9075354 0  
0.9667555 0.83175755 0  
0.5987462 0.28922248 0  
0.11813834 0.6749375 0  
0.38161784 0.6131642 0  
0.6618531 0.40398476 0  
0.6370484 0.08659111 0  
0.038074076 0.5894313 0  
0.038074076 0.9105687 0  
0.96839094 0.6753669 0  
0.14384495 0.75045496 0  
0.5411818 0.84978336 0  
0.52673554 0.8019128 0  
0.7657028 0.46494102 0  
0.961649 0.03835645 0  
0.675 0.030283678 0  
0.7518289 0.70853835 0  
0.96001375 0.18740793 0  
0.9678583 0.27471802 0  
0.67516285 0.9681792 0  
0.59831095 0.83401567 0  
0.9073243 0.5525552 0  
0.8611736 0.90393615 0  
0.5795172 0.033180732 0  
0.5208923 0.96885955 0  
0.47072348 0.967185 0  
0.6462471 0.6071309 0  
0.52937275 0.275 0  
0.26006237 0.6504962 0  
0.73740774 0.8595233 0  
0.8331797 0.2957258 0  
0.47728643 0.80960673 0  
0.9208824 0.037562877 0  
0.9040851 0.18120942 0  
0.70257896 0.8997159 0  
0.97050655 0.074435726 0  
0.36017016 0.7398202 0  
0.7106061 0.0794504 0  
0.63714504 0.33196637 0  
0.890113 0.67338765 0  
0.17423429 0.88494647 0  
0.70125586 0.4576201 0  
0.9066001 0.8085411 0  
0.71885514 0.6719225 0  
0.36035147 0.9661565 0  
0.42251006 0.5290217 0  
0.9723008 0.4259288 0  
0.64294964 0.51980066 0  
0.78817964 0.03501066 0  
0.570402 0.7144006 0  
0.12055232 0.8290842 0  
0.19649777 0.7861254 0  
0.67484623 0.27905807 0  
0.36568695 0.6714864 0  
0.97151566 0.9645467 0  
0.8305832 0.16528471 0  
0.7877058 0.2744767 0  
0.4071035 0.9074601 0  
0.8660333 0.7541822 0  
0.75281197 0.5088334 0  
0.80377316 0.22890417 0  
0.7842619 0.53388166 0  
0.80658257 0.8577738 0  
0.8967399 0.28827333 0  
0.82637364 0.5137572 0  
0.9234294 0.25649244 0  
0.30519488 0.78316474 0  
0.8318979 0.6562427 0  
0.121106885 0.5892234 0  
0.97378284 0.925 0  
0.903588 0.07469306 0  
0.5322612 0.41135144 0  
0.63939583 0.91243213 0  
0.6109627 0.7054028 0  
0.57147133 0.35136378 0  
0.6785297 0.6806924 0  
0.90144104 0.14535177 0  
0.7748313 0.76722825 0  
0.7498974 0.14247963 0  
0.61986715 0.56109023 0  
0.36870277 0.77900666 0  
0.9640754 0.59000534 0  
0.9105131 0.86591715 0  
0.027604798 0.5276048 0  
0.027604798 0.9723952 0  
0.5214134 0.7612175 0  
CELLS 792 3168 
3 407 234 112 
3 413 222 86 
3 183 234 407 
3 108 278 233 
3 97 158 344 
3 124 207 169 
[...]
POINT_DATA 437 
SCALARS T float 
LOOKUP_TABLE default 
0.5000000000012899 
0.5000000000016751 
5.979886669510976e-18 
2.438395844660797e-12 
4.334291159213963e-14 
1.0281805798430542e-11 
0.9999999999996504 
1.0000000000000078 
1.0000000000000027 
0.9999999999999991 
0.999999999999993 
0.9999999999999931 
1.0000000000000153 
1.0000000000000302 
0.9999999999995309 
4.592379065177039e-12 
2.3092816737780597e-12 
9.852759840824873e-13 
7.076108199549033e-13 
3.626997331775232e-13 
1.3050849118281716e-13 
6.180315493156356e-14 
3.70337361978029e-14 
-1.4182427215485643e-14 
9.08307397607993e-15 
-3.164009243912047e-14 
-7.032637118864758e-15 
-2.2565910197333753e-15 
1.9463476273685618e-16 
8.130550386104366e-16 
2.8391931397723095e-16 
1.634564388674908e-16 
5.5167832942800415e-17 
-2.4088469194833795e-17 
-6.844318631059198e-17 
-2.041463172943163e-17 
-5.485140353345361e-16 
1.8312998141416283e-15 
8.703371944286432e-15 
4.8371130899093045e-14 
1.4513671317152093e-13 
3.276660762786842e-13 
6.566300837388944e-13 
9.966903832899739e-13 
1.466122814453883e-12 
1.999974672766201e-12 
2.0427163342849238e-12 
2.8416562764534885e-12 
2.2330484628208673e-12 
2.3751148056607466e-12 
2.5911175952575197e-12 
1.7264669581986484e-12 
1.546304851372292e-12 
1.0387103461955058e-11 
1.438176617019311e-11 
1.5506242103811272e-11 
1.3888339343871092e-11 
1.0524372619081488e-11 
6.601586058806386e-12 
3.3193327451992325e-12 
1.1333480769361167e-12 
3.5592144982033913e-13 
2.0961879922816447e-14 
2.2501522582047437e-14 
-3.3628463825229326e-15 
8.799607791971198e-15 
7.322637739366006e-16 
-1.1969900845205039e-14 
-8.212865978329083e-15 
1.5397355197437586e-14 
-1.8940906766226385e-13 
1.1177105409999807e-11 
8.96771368964101e-12 
7.534035206455542e-12 
6.6348390988873515e-12 
5.1566363443343565e-12 
4.213585659588059e-12 
4.173466046398364e-12 
3.099016131170046e-12 
4.576916089861948e-12 
0.32734897415271097 
0.9854001808288443 
0.8074107020942967 
0.675390523256651 
1.0007576307325536 
0.3684230890399351 
0.0024460332298886058 
0.88660982748759 
0.9948961613033354 
0.7896021325721464 
0.14473663706398174 
0.2130711540975137 
0.7739793464001323 
0.5853017813454717 
0.03679179497946926 
0.9313591674541254 
0.8069152743859523 
1.001950015040346 
0.4398209794646222 
0.996817726088949 
0.18211988759803596 
0.6136262133317881 
0.22630672561325552 
1.0074921181405634 
0.5348657458942154 
1.0002108041583933 
0.006683079779499145 
0.9018842535893691 
0.4303695253765115 
0.9727019821269246 
0.8669849229525592 
1.965043506253648e-5 
1.0003080464470255 
0.030830638081986345 
0.5389342998319199 
0.826891061419959 
0.0007424796290135114 
0.06094487960885686 
0.7436099025049097 
0.7895464758293539 
0.04308461204975814 
0.41670515875004704 
0.26386739992300456 
1.0087391303369382 
0.08272111149605446 
0.6498873363552425 
0.9748694426652638 
0.16579768399394051 
0.9179218510342539 
0.0004200346941645354 
0.04954494769248148 
0.9994659148500392 
1.000903425820656 
0.9972443919201516 
0.2787506914601356 
0.08536712618613866 
0.5326404472409566 
0.06487261729459687 
0.1867152950634116 
0.47117011449018187 
0.7450002151929772 
0.8121061637812791 
0.39931259001662534 
0.3721201940510224 
0.8173547506040428 
0.9431716325576952 
0.7852813815005798 
0.2035758718997629 
0.25107986807345284 
0.5560619672832682 
0.9975865842837465 
0.0030771488095151967 
0.8706321279496096 
0.01650024112290045 
0.9993084699780175 
0.37806098049462783 
0.45035323505474084 
-2.2018983328040967e-5 
0.9464852883925319 
0.9078765057221602 
0.9867128902285466 
0.9908272574584387 
0.9684014232996397 
0.740368879515629 
0.7515043774655712 
0.9551650828886934 
0.7122102134264721 
1.001302830050802 
0.01496265235176495 
0.30208449261568765 
0.11754849258623998 
0.022875833545338564 
0.26988906329517554 
0.9486630848249609 
0.06597161088363775 
0.8616432316125467 
0.24209105784701024 
0.9856391356647748 
0.7593719458219909 
0.019355064239702794 
0.16193090569603547 
0.33305587690763866 
0.4633088385149453 
0.9820804326093447 
0.7037552800988172 
1.0002262077109965 
0.9946234135696624 
0.9981936053839257 
-1.993634246777268e-5 
0.0002743555173736093 
0.5241316406450653 
0.814597651422506 
0.015132281850131478 
0.9129970019686793 
1.0011301989692727 
0.43199463370941515 
0.6172941442889938 
0.7414545844549887 
0.6359979208901599 
7.742668711218548e-5 
0.01655483289292977 
-9.879345762608014e-5 
1.000682442685684 
0.741753638234379 
0.9736149594908133 
0.33041013531849206 
0.08594661682489538 
0.17685688107296832 
0.8335607876039633 
0.0021122909801816977 
0.9718767840902971 
0.1921380541092923 
0.531512740600727 
0.8755736639394338 
0.6173603107213029 
0.17534753770780584 
1.1256590278632859 
0.9989348639211506 
0.00015073351167181154 
0.4909808448032572 
0.9373087148672917 
0.06566120739739913 
0.017815974233231002 
0.8975025556854597 
0.7055944879834993 
1.0928706591479995 
0.7615356910360539 
0.6391244915478087 
0.022234177328969894 
0.574541577095 
1.0062770483447854 
1.0016603832668802 
1.0005879582014505 
1.0244986530297002 
1.0003845679347956 
-2.666762608477912e-5 
0.3343890535027323 
1.0081153041923208 
0.16834262805112038 
0.5843029606729159 
0.8981262177824021 
0.4712238148103413 
1.1676976867106692 
0.004463081795631471 
0.762845990022448 
0.8487812801813693 
0.5612772323610898 
0.43626930059302504 
0.14054996621246302 
0.12097662998411854 
0.02451808416978873 
0.3481913105530895 
0.14226895031532327 
0.029727110186155793 
-0.00010343865168723839 
0.644019784010427 
0.9410874891142751 
0.057494726547464056 
0.9995768334901693 
0.7954373406057722 
0.861227879145009 
0.9981362418984473 
1.0159189067779306 
0.011462241147250779 
0.9189292366242916 
0.0012384456367515082 
0.0039179607251668925 
0.18393235886220613 
0.7715780676493358 
0.9998653251178555 
0.09355399619868396 
0.023550001448007105 
0.00045247206602061805 
1.0001461079111051 
0.17232645539598923 
1.1894962916634235 
0.4819605518389852 
0.6691754881769131 
0.7085270557388222 
0.24514491719959797 
0.2786388173970106 
0.011940885955207991 
0.8839727326136493 
0.037439920022872344 
1.0011662968077382 
0.7234262293220225 
0.71912186823044 
0.18285497296889852 
0.761862388924558 
0.8349745111192308 
1.0200807992821204 
0.0034691731592142376 
0.00010433993150710878 
0.8657083523610102 
1.000136700671876 
0.16290691351503236 
0.7239290787333184 
0.9954047810041596 
1.0000903997742545 
0.6432393882764892 
0.55481161023545 
0.007843706023106236 
0.4095755863984622 
0.5931986886666992 
0.4084500526234775 
0.44862859082755524 
0.9064860912279524 
0.027040574770928326 
1.0004520490118203 
0.46445491550230833 
0.9186020395727748 
0.0708022887945125 
0.968009674728405 
0.8339875176783715 
0.7968106280885439 
0.006469859240661369 
0.80605156883462 
0.014455470596052847 
0.3274671020050997 
0.5862582646777257 
0.41066825443126775 
1.1797628234916853 
0.8091797334169795 
0.8685341796581015 
0.7774707172804406 
0.05281245752425084 
0.3632725731379403 
0.9863713970510835 
0.10850251406922336 
0.27187628339250686 
1.0015255680203292 
0.14809637538050135 
1.2101625321912308 
0.9992485530010013 
0.41932261087062883 
0.9828344104655464 
0.9935439826449644 
0.19216204006247883 
0.9688081916295687 
0.9962153140143716 
-1.9287345350177173e-6 
1.0712703617453139 
0.0687199050668524 
0.42136407810631726 
1.0047209780277477 
0.31150578861360984 
0.9776503140972534 
0.14479848072197146 
0.13333471768422317 
0.3315899750252317 
0.827125118081738 
0.5146516697809791 
-2.5316967916411503e-5 
0.9589962932477487 
0.3457752650254956 
0.45590552282200847 
0.9997181212604972 
1.0035453349900565 
0.07891490712947523 
1.0384720862738084 
0.0003195445385495418 
0.7106902077967062 
0.3195488236428052 
0.5119276098564536 
0.8448980295862655 
0.9166141930164907 
1.0002372384809828 
0.19230853161066847 
0.4409845183523443 
0.17889041288177646 
0.0084842010296557 
0.24441823541576124 
0.06401565605798618 
1.1037860851027707e-5 
0.9966856475070811 
0.08695198015965755 
0.1403342988498311 
0.8330319086710617 
0.7699240482438853 
0.33976986301328715 
0.02189317399965236 
0.9536940786642947 
0.5903900884607632 
0.9977118369435392 
0.9266691904415733 
0.019206023953472616 
0.6197564332121485 
0.8781932748316003 
1.0000251495188666 
0.997252434166711 
0.013924762463344013 
0.6570370158454856 
0.9729938179478502 
0.0002831125696479444 
0.4034865533246813 
0.2667724645298132 
0.06457988880082591 
0.029504275644712804 
0.9820797811956682 
1.0012107373910337 
0.7076135553501746 
0.8653044076213482 
0.7980048990865177 
0.9974379814501549 
0.7447421030471909 
4.258479152581474e-6 
1.0014459720125342 
0.9982793867683354 
0.3563401984434464 
0.006031267206608413 
0.7893445846370436 
1.0012509040369402 
0.5892794593665851 
0.0033887154891860997 
0.7001852306775879 
0.45444901477669597 
0.6024437744405697 
0.8480013693845969 
0.10156096809728393 
0.05329919129143479 
6.716504950186258e-7 
1.0185047012217927 
1.1365468191223287 
0.04867583940748519 
0.6350990671783316 
1.0243067075751262 
0.5133934814467767 
0.9615656555387285 
0.05955428747664723 
1.000081684925556 
0.9371860383242951 
0.8345441826534113 
0.0016719549802097454 
-3.192849851384027e-5 
0.010597629176199976 
0.39416238456172736 
0.6639439734380194 
