# vtk DataFile Version 3.0 
Unstructured Grid 
ASCII 
DATASET UNSTRUCTURED_GRID
POINTS 437 float 
0.5 0 0  
1 0 0  
1 1 0  
0 1 0  
0 0.5 0  
0.5 0.5 0  
0.55 0 0  
0.6 0 0  
0.65 0 0  
0.7 0 0  
0.75 0 0  
0.8 0 0  
0.85 0 0  
0.9 0 0  
0.95 0 0  
1 0.05 0  
1 0.1 0  
1 0.15 0  
1 0.2 0  
1 0.25 0  
1 0.3 0  
1 0.35 0  
1 0.4 0  
1 0.45 0  
1 0.5 0  
1 0.55 0  
1 0.6 0  
1 0.65 0  
1 0.7 0  
1 0.75 0  
1 0.8 0  
1 0.85 0  
1 0.9 0  
1 0.95 0  
0.95 1 0  
0.9 1 0  
0.85 1 0  
0.8 1 0  
0.75 1 0  
0.7 1 0  
0.65 1 0  
0.6 1 0  
0.55 1 0  
0.5 1 0  
0.45 1 0  
0.4 1 0  
0.35 1 0  
0.3 1 0  
0.25 1 0  
0.2 1 0  
0.15 1 0  
0.1 1 0  
0.05 1 0  
0 0.95 0  
0 0.9 0  
0 0.85 0  
0 0.8 0  
0 0.75 0  
0 0.7 0  
0 0.65 0  
0 0.6 0  
0 0.55 0  
0.05 0.5 0  
0.1 0.5 0  
0.15 0.5 0  
0.2 0.5 0  
0.25 0.5 0  
0.3 0.5 0  
0.35 0.5 0  
0.4 0.5 0  
0.45 0.5 0  
0.5 0.45 0  
0.5 0.4 0  
0.5 0.35 0  
0.5 0.3 0  
0.5 0.25 0  
0.5 0.2 0  
0.5 0.15 0  
0.5 0.1 0  
0.5 0.05 0  
0.7067263 0.70899034 0  
0.7462131 0.3784907 0  
0.275 0.75 0  
0.49203128 0.7759238 0  
0.8004979 0.19051445 0  
0.8169689 0.5569046 0  
0.8379451 0.8232311 0  
0.6651841 0.5643974 0  
0.6586247 0.24525054 0  
0.39886913 0.6556846 0  
0.6357807 0.845222 0  
0.15416667 0.65416664 0  
0.15469871 0.8490102 0  
0.37710553 0.86057764 0  
0.8530772 0.68242943 0  
0.5399757 0.6405682 0  
0.87012184 0.30832314 0  
0.6218386 0.41301885 0  
0.8712292 0.43948308 0  
0.6270563 0.12650847 0  
0.2721758 0.6146517 0  
0.26237586 0.88543755 0  
0.5290535 0.8872315 0  
0.8881946 0.111421056 0  
0.59896 0.74404466 0  
0.73382306 0.10964348 0  
0.7398329 0.9080902 0  
0.7300285 0.48150903 0  
0.10457365 0.74805343 0  
0.5998279 0.32869247 0  
0.4013559 0.7541197 0  
0.8998196 0.8998196 0  
0.7425495 0.27230954 0  
0.90489763 0.5939467 0  
0.7320272 0.6158908 0  
0.90734863 0.2194375 0  
0.90656686 0.7697009 0  
0.74241894 0.80003285 0  
0.632743 0.65343165 0  
0.46277094 0.5961966 0  
0.08243797 0.5905297 0  
0.08731128 0.91282296 0  
0.44904137 0.91765434 0  
0.57323986 0.55955005 0  
0.91513485 0.5138866 0  
0.1836753 0.7418762 0  
0.5856236 0.20050126 0  
0.35569865 0.5818674 0  
0.4717501 0.69469833 0  
0.8203882 0.9111774 0  
0.19848472 0.58481354 0  
0.7232736 0.19122238 0  
0.6770922 0.32269323 0  
0.80834067 0.08196056 0  
0.9230353 0.37846187 0  
0.78589296 0.72803205 0  
0.18855475 0.91950625 0  
0.6022492 0.9193816 0  
0.07701049 0.6750049 0  
0.07779311 0.8285882 0  
0.33496442 0.69013095 0  
0.22651649 0.8130275 0  
0.33345127 0.9266774 0  
0.56306595 0.81706417 0  
0.79485846 0.43853834 0  
0.57445616 0.4795266 0  
0.30524647 0.8211264 0  
0.8098617 0.6293174 0  
0.66652167 0.7748195 0  
0.44695833 0.83554715 0  
0.58482915 0.07054804 0  
0.92909133 0.6757825 0  
0.82267326 0.3699049 0  
0.6750539 0.9307201 0  
0.6726681 0.069687515 0  
0.22284219 0.6692463 0  
0.9308683 0.2891792 0  
0.930985 0.8368545 0  
0.57183284 0.395735 0  
0.56719327 0.267426 0  
0.8295321 0.2563277 0  
0.702163 0.41558313 0  
0.6631986 0.48596716 0  
0.5332523 0.7285968 0  
0.9389338 0.15767792 0  
0.9392354 0.06812419 0  
0.74606097 0.5461627 0  
0.668234 0.16889203 0  
0.82325417 0.7682245 0  
0.86888987 0.49205798 0  
0.9373707 0.42941386 0  
0.27492446 0.5574591 0  
0.7591465 0.66997904 0  
0.5625162 0.14507365 0  
0.698026 0.84136397 0  
0.33979788 0.7690552 0  
0.4100188 0.5701878 0  
0.86549294 0.1689855 0  
0.15718786 0.7919015 0  
0.14695793 0.56156343 0  
0.49887148 0.9348564 0  
0.39005366 0.9400572 0  
0.2756479 0.94468254 0  
0.79987353 0.31934652 0  
0.79108334 0.48730215 0  
0.7893297 0.13692713 0  
0.8729007 0.040251754 0  
0.65027624 0.3686311 0  
0.94156647 0.94156647 0  
0.77622527 0.94636667 0  
0.6486954 0.7048788 0  
0.5761476 0.67128414 0  
0.77190053 0.83744544 0  
0.60624254 0.5986166 0  
0.7550012 0.06245598 0  
0.50134873 0.8411101 0  
0.68467325 0.64302444 0  
0.053087775 0.72582155 0  
0.139265 0.9408418 0  
0.95088 0.7243738 0  
0.9432815 0.5566516 0  
0.86394966 0.9434744 0  
0.6805639 0.11338498 0  
0.20661557 0.866214 0  
0.5136965 0.55900043 0  
0.61441326 0.79211885 0  
0.5533345 0.9442417 0  
0.86748934 0.5476702 0  
0.45131102 0.7447211 0  
0.9522712 0.6298776 0  
0.49115333 0.6454875 0  
0.57800794 0.87019897 0  
0.14164469 0.70855445 0  
0.38005453 0.7027296 0  
0.27368295 0.69533986 0  
0.049783085 0.62717026 0  
0.049414515 0.87215096 0  
0.62649876 0.043947894 0  
0.8786532 0.85014766 0  
0.34885973 0.6374005 0  
0.5949198 0.5178657 0  
0.86131465 0.63502216 0  
0.79260343 0.80256337 0  
0.7014114 0.5166631 0  
0.40068594 0.814811 0  
0.55082065 0.3157755 0  
0.6816506 0.59935296 0  
0.3207115 0.869895 0  
0.05274013 0.55274016 0  
0.05274013 0.94725984 0  
0.6400825 0.29462123 0  
0.70826656 0.24477807 0  
0.7619463 0.22610597 0  
0.052983053 0.7814943 0  
0.7439376 0.3234126 0  
0.95078784 0.88415176 0  
0.9592077 0.22841401 0  
0.84777594 0.1277937 0  
0.9565159 0.32835326 0  
0.87450755 0.38491434 0  
0.8723333 0.26038516 0  
0.2202579 0.9566307 0  
0.5511588 0.44135624 0  
0.89094824 0.71469563 0  
0.14088513 0.8952839 0  
0.9426072 0.110777475 0  
0.5598569 0.76635987 0  
0.7797588 0.58802515 0  
0.73662144 0.7500704 0  
0.80291736 0.6806566 0  
0.3250526 0.545103 0  
0.47699997 0.87967384 0  
0.109880045 0.6315259 0  
0.9565706 0.4731244 0  
0.9520049 0.7877815 0  
0.41847795 0.61317724 0  
0.7469016 0.43319932 0  
0.6651573 0.8785795 0  
0.6980314 0.36945662 0  
0.22855084 0.7651636 0  
0.5426688 0.22467211 0  
0.85128033 0.20839585 0  
0.6080812 0.24411796 0  
0.22691919 0.54427826 0  
0.42439926 0.70143026 0  
0.87087065 0.7973803 0  
0.71672744 0.95107883 0  
0.83949435 0.5922577 0  
0.34957552 0.8123493 0  
0.51278394 0.6086165 0  
0.15431206 0.6098422 0  
0.6343587 0.9556687 0  
0.8392547 0.8737899 0  
0.7109742 0.042080052 0  
0.23100297 0.62427217 0  
0.5484106 0.51544434 0  
0.42224586 0.8707757 0  
0.10496536 0.8650706 0  
0.11225842 0.7941315 0  
0.429402 0.95576584 0  
0.46295157 0.54450357 0  
0.10164671 0.5457688 0  
0.5822864 0.63314605 0  
0.37762833 0.53745234 0  
0.8275239 0.04005421 0  
0.8323437 0.41491747 0  
0.44464156 0.7891728 0  
0.90912354 0.4597161 0  
0.26412204 0.8401569 0  
0.26712763 0.7957094 0  
0.62024623 0.47111306 0  
0.7770051 0.8863074 0  
0.8221126 0.9602037 0  
0.5225849 0.68752897 0  
0.76535124 0.17708147 0  
0.31416538 0.59776855 0  
0.53816175 0.1840494 0  
0.6130816 0.16364412 0  
0.7091263 0.2886451 0  
0.22773811 0.71831167 0  
0.9012153 0.33257928 0  
0.18447237 0.53813106 0  
0.18472914 0.6879896 0  
0.82954866 0.46472684 0  
0.17961553 0.9633957 0  
0.36685705 0.9008585 0  
0.44457012 0.65111244 0  
0.8385268 0.7209097 0  
0.7115207 0.14475605 0  
0.09503517 0.95690435 0  
0.7880896 0.39571288 0  
0.96492094 0.38520482 0  
0.5563232 0.6018296 0  
0.31393582 0.73382735 0  
0.49519077 0.7332941 0  
0.9629974 0.5187325 0  
0.5415193 0.100338124 0  
0.9036664 0.6412981 0  
0.3244769 0.96671104 0  
0.2306904 0.9144942 0  
0.035453074 0.6754281 0  
0.035497267 0.82603335 0  
0.18655832 0.81865835 0  
0.54264426 0.042344484 0  
0.70526683 0.56849337 0  
0.5891552 0.9625355 0  
0.09987184 0.7080552 0  
0.6646015 0.4450029 0  
0.62016 0.87781084 0  
0.68724763 0.7468739 0  
0.6794575 0.21179324 0  
0.66522187 0.8161647 0  
0.5348051 0.47726545 0  
0.77173877 0.09966874 0  
0.30060795 0.6489708 0  
0.5900102 0.4408019 0  
0.6355171 0.20569986 0  
0.19041659 0.6358006 0  
0.7817328 0.35663295 0  
0.85770756 0.080021024 0  
0.90471005 0.95934963 0  
0.53831446 0.36966592 0  
0.24070142 0.5850949 0  
0.63882816 0.744377 0  
0.6058876 0.3669202 0  
0.9048971 0.4124307 0  
0.5905425 0.11210937 0  
0.6993429 0.7882209 0  
0.5656613 0.9052634 0  
0.7704826 0.63249016 0  
0.8522724 0.33958897 0  
0.296919 0.9075354 0  
0.9667555 0.83175755 0  
0.5987462 0.28922248 0  
0.11813834 0.6749375 0  
0.38161784 0.6131642 0  
0.6618531 0.40398476 0  
0.6370484 0.08659111 0  
0.038074076 0.5894313 0  
0.038074076 0.9105687 0  
0.96839094 0.6753669 0  
0.14384495 0.75045496 0  
0.5411818 0.84978336 0  
0.52673554 0.8019128 0  
0.7657028 0.46494102 0  
0.961649 0.03835645 0  
0.675 0.030283678 0  
0.7518289 0.70853835 0  
0.96001375 0.18740793 0  
0.9678583 0.27471802 0  
0.67516285 0.9681792 0  
0.59831095 0.83401567 0  
0.9073243 0.5525552 0  
0.8611736 0.90393615 0  
0.5795172 0.033180732 0  
0.5208923 0.96885955 0  
0.47072348 0.967185 0  
0.6462471 0.6071309 0  
0.52937275 0.275 0  
0.26006237 0.6504962 0  
0.73740774 0.8595233 0  
0.8331797 0.2957258 0  
0.47728643 0.80960673 0  
0.9208824 0.037562877 0  
0.9040851 0.18120942 0  
0.70257896 0.8997159 0  
0.97050655 0.074435726 0  
0.36017016 0.7398202 0  
0.7106061 0.0794504 0  
0.63714504 0.33196637 0  
0.890113 0.67338765 0  
0.17423429 0.88494647 0  
0.70125586 0.4576201 0  
0.9066001 0.8085411 0  
0.71885514 0.6719225 0  
0.36035147 0.9661565 0  
0.42251006 0.5290217 0  
0.9723008 0.4259288 0  
0.64294964 0.51980066 0  
0.78817964 0.03501066 0  
0.570402 0.7144006 0  
0.12055232 0.8290842 0  
0.19649777 0.7861254 0  
0.67484623 0.27905807 0  
0.36568695 0.6714864 0  
0.97151566 0.9645467 0  
0.8305832 0.16528471 0  
0.7877058 0.2744767 0  
0.4071035 0.9074601 0  
0.8660333 0.7541822 0  
0.75281197 0.5088334 0  
0.80377316 0.22890417 0  
0.7842619 0.53388166 0  
0.80658257 0.8577738 0  
0.8967399 0.28827333 0  
0.82637364 0.5137572 0  
0.9234294 0.25649244 0  
0.30519488 0.78316474 0  
0.8318979 0.6562427 0  
0.121106885 0.5892234 0  
0.97378284 0.925 0  
0.903588 0.07469306 0  
0.5322612 0.41135144 0  
0.63939583 0.91243213 0  
0.6109627 0.7054028 0  
0.57147133 0.35136378 0  
0.6785297 0.6806924 0  
0.90144104 0.14535177 0  
0.7748313 0.76722825 0  
0.7498974 0.14247963 0  
0.61986715 0.56109023 0  
0.36870277 0.77900666 0  
0.9640754 0.59000534 0  
0.9105131 0.86591715 0  
0.027604798 0.5276048 0  
0.027604798 0.9723952 0  
0.5214134 0.7612175 0  
CELLS 792 3168 
3 407 234 112 
3 413 222 86 
3 183 234 407 
3 108 278 233 
3 97 158 344 
3 124 207 169 
[...]
POINT_DATA 437 
SCALARS T float 
LOOKUP_TABLE default 
0.5000000000012899 
0.5000000000016751 
5.991970694534664e-18 
1.9276536708640306e-12 
3.035058394777416e-14 
1.0281821671557696e-11 
0.9999999999996504 
1.0000000000000078 
1.0000000000000027 
0.9999999999999991 
0.999999999999993 
0.9999999999999931 
1.0000000000000153 
1.0000000000000302 
0.9999999999995309 
4.592379065152486e-12 
2.3092816737716895e-12 
9.852759829137758e-13 
7.076108219914042e-13 
3.62699732830218e-13 
1.30508488516717e-13 
6.180316866026908e-14 
3.703372593363801e-14 
-1.4182411526246533e-14 
9.083062719731964e-15 
-3.164004086172676e-14 
-7.032579882764511e-15 
-2.2564846833694544e-15 
1.945292087758789e-16 
8.129085968213905e-16 
2.838376471663606e-16 
1.6348381330261248e-16 
5.514618993879261e-17 
-2.411447732720819e-17 
-6.846316705004555e-17 
-2.0310301966387957e-17 
-5.48469178133212e-16 
1.8318914268919973e-15 
8.702521250233319e-15 
4.837287267999591e-14 
1.4513431198348124e-13 
3.2765183101750496e-13 
6.565732253571566e-13 
9.963880726563599e-13 
1.4650371107700842e-12 
1.9958622450399953e-12 
2.036777631822074e-12 
2.806148537536803e-12 
2.2245779400412182e-12 
2.251766918120423e-12 
2.4981313146712824e-12 
1.487341122752053e-12 
1.3016916375865975e-12 
8.242254658070735e-12 
1.129654589267891e-11 
1.2141896920520277e-11 
1.0876494550120154e-11 
8.258255708111002e-12 
5.115509956533881e-12 
2.533022564595797e-12 
8.443881074580171e-13 
2.535990143605524e-13 
1.4313741919386076e-14 
1.8463667224203613e-14 
-2.6302607706594764e-15 
8.463996215525295e-15 
8.688980326677567e-16 
-1.2300916988435937e-14 
-8.056195314595166e-15 
1.5333084099701226e-14 
-1.8938871171771113e-13 
1.1177104877317137e-11 
8.967715176181003e-12 
7.534036502056913e-12 
6.63483976019845e-12 
5.156636549974318e-12 
4.213585706803119e-12 
4.173466054555927e-12 
3.099016129437462e-12 
4.57691609007565e-12 
0.32734802095666016 
0.9854001363173222 
0.8034613847014206 
0.6753388912259592 
1.0007576314727997 
0.3684231083132602 
0.0024459943299478277 
0.8866097559065458 
0.9948961681524247 
0.7893913479204202 
0.14473405446269272 
0.20943568812049998 
0.7327958235099539 
0.5847558595123206 
0.036791877448063476 
0.9313554927981454 
0.8069152737889036 
1.0019502472314907 
0.4398209762244148 
0.9968177250670813 
0.1811012097448377 
0.6087906188975989 
0.22631297163870195 
1.0074921180118304 
0.5348663484349273 
1.0002108042593536 
0.006682803500916386 
0.9018841849022636 
0.43070987499998653 
0.9727020460400325 
0.866606264617556 
1.9685057713284444e-5 
1.0003080479147473 
0.030830652916789537 
0.5389342222389746 
0.8268910611318809 
0.0007424328369605904 
0.060944445637436076 
0.7436102433460817 
0.7895246212909817 
0.038887783407555075 
0.40916567556459826 
0.26383840930883595 
1.0087379532698126 
0.08272111734086034 
0.6358494877751419 
0.974869443323275 
0.16568579622692722 
0.917876374783671 
0.00042007496162867306 
0.0487370296858641 
0.9994659146270506 
1.0009034481233792 
0.9972443920390439 
0.2787506908248233 
0.085367303723828 
0.5265547675637485 
0.06487023829166383 
0.17971717862962097 
0.4624394210583474 
0.7437970023088463 
0.7992622221410811 
0.3972445188085677 
0.3721061850866065 
0.8173547094469454 
0.943172175736275 
0.7807025574631536 
0.20357591070743425 
0.2510772041839374 
0.556014571618414 
0.9975865843157475 
0.0030771399441544903 
0.8706321327197257 
0.016499596662990966 
0.999308469936233 
0.37219704920538965 
0.45035323336087585 
-2.1998237995877517e-5 
0.9464855189735166 
0.90787652677101 
0.9867128891965222 
0.9908272870807516 
0.9684016435572433 
0.7403591557235412 
0.7515043774537076 
0.9551650828671374 
0.7122101709819046 
1.0013028314297063 
0.01496241890687672 
0.3020845052462623 
0.11754849696264022 
0.02287365741393603 
0.269888769221642 
0.9486630865373878 
0.06597172342359763 
0.8598365146674628 
0.24208325132622968 
0.9856391356377501 
0.7287336495052985 
0.018285917005746367 
0.16188224239527477 
0.33251712305807696 
0.4615010599411294 
0.9820804255988181 
0.7037552903350236 
1.0002262072382622 
0.9946234136064976 
0.9981935837330153 
-1.994757124661178e-5 
0.00027417622346302776 
0.5241325798982625 
0.8145979392755861 
0.015132266014409267 
0.9129970265366327 
1.0011301986772996 
0.4319327681987138 
0.6172942447499364 
0.5973144858415721 
0.5804857213471271 
7.743429447330074e-5 
0.016554824033677182 
-9.882623747384505e-5 
1.0006824421444234 
0.7170868476509185 
0.9736138051026247 
0.3304148455733163 
0.08594984061968597 
0.17685686276201973 
0.8334169895547241 
0.0021122729982072136 
0.9718557677698745 
0.19213360825969833 
0.4874162004023112 
0.8749110737614886 
0.6146114562541845 
0.1380339688731484 
0.9086722138049168 
0.9989348635910872 
0.00015073647671744888 
0.4906388488998589 
0.9373095071922614 
0.06566112530292126 
0.017816129974194544 
0.8975028110482404 
0.7048666879511986 
1.0928707843111285 
0.7615358152419628 
0.635638528806305 
0.016955197562984053 
0.4839029350082213 
1.0062770444205966 
1.0016603839751856 
1.0005879557234725 
0.8299799061264885 
1.000384568304195 
-2.666918720790104e-5 
0.33438905335401764 
1.0081153046252562 
0.16834262921524543 
0.5843029572262619 
0.898126218332873 
0.45253752206620257 
1.167697872763102 
0.004463052603185544 
0.6931196416049809 
0.8487812801542707 
0.5612647234050041 
0.43626924996293326 
0.1405491673684052 
0.1209763151441115 
0.024439777406577413 
0.3481202579001713 
0.12942963842960015 
0.0297271050857425 
-0.00010341548522647578 
0.6439501540245312 
0.9410875742080632 
0.05749447971509118 
0.9995768637241206 
0.7807036826127014 
0.8612278927190814 
0.9981362429448315 
1.0159189277908454 
0.011277873435133576 
0.9187395072293757 
0.0012384952094837594 
0.00391838546234213 
0.18393236144619043 
0.7705426212070322 
0.9998566950869469 
0.08898799756356396 
0.02355129844032403 
0.0004524818069718215 
1.0001461078970832 
0.17087164210780761 
1.1894948791051674 
0.48166924980163145 
0.6195009887946168 
0.6597886918512079 
0.2449383006409003 
0.278628292981234 
0.01036782596448711 
0.883972275425458 
0.03745585316196835 
1.0011662968501618 
0.7234262501843828 
0.7190636840909868 
0.18285496405330093 
0.7557957101172682 
0.8270738938955547 
1.020080534764982 
0.0034694104176432204 
0.00010444681335923575 
0.86569443360917 
1.0001367012310751 
0.1627104584379356 
0.7239290823923166 
0.995404783662586 
1.000090394562772 
0.6313179907427235 
0.5548116136855831 
0.0075681818317385515 
0.4016151549824009 
0.593198697634762 
0.39782378813297203 
0.448225499382049 
0.9063994115884249 
0.027040544209952205 
1.0004520480077375 
0.4108453320994353 
0.9186020168487546 
0.07080228540553106 
0.9680080508421894 
0.8306620998001997 
0.7967957417254067 
0.006469859125073608 
0.8060515684422334 
0.014455501512617238 
0.3244043620870035 
0.5716808762984964 
0.3201429354617998 
0.9351321093184598 
0.7807258342330611 
0.8685341796645574 
0.777470911586016 
0.052807066236153936 
0.34490498613144754 
0.9863715086844009 
0.10850237786972843 
0.2718773520629342 
1.00152556743018 
0.14809495846388984 
1.2101622289989666 
0.999248553108992 
0.4180128368756694 
0.9828345160330516 
0.9935439791832509 
0.18514543929747457 
0.968808212802462 
0.996215313901718 
-1.9194347998670648e-6 
1.071270552517119 
0.06787386643122853 
0.42136124060619623 
1.0047209668247032 
0.3115057939276076 
0.9776503128891101 
0.14479916332723822 
0.1333215195757395 
0.331590162018441 
0.8271251215391522 
0.5085815879129084 
-2.530356810843238e-5 
0.9589962985282067 
0.3088921950230716 
0.4557490791945009 
0.9997180941289076 
1.0035453354052293 
0.05864383440828774 
0.8275982299632062 
0.0003195203640782058 
0.6592031306538466 
0.31954323113374583 
0.5119439201528273 
0.8448981052038148 
0.9166141930096178 
1.0002372384669764 
0.1923090043721545 
0.4409845186869405 
0.17889041298376604 
0.008483434978810628 
0.24442194171336262 
0.06401564713529063 
1.107661266077081e-5 
0.9966856474095839 
0.08693813661817472 
0.14028028062181633 
0.8330319622460273 
0.769924092538714 
0.3375308508083796 
0.021892956277638823 
0.9536940809268348 
0.5902778582467338 
0.9977118369076515 
0.9266691901808531 
0.0192060645601698 
0.6197564332064199 
0.8773956864533778 
1.0000251494160932 
0.997252492257646 
0.013924726751406893 
0.6375175190543939 
0.9729936596390819 
0.00028308213890064515 
0.40348674632678816 
0.26642697575065327 
0.06456513911777045 
0.029504275952902267 
0.982079443970715 
1.0012107373927535 
0.7076161466459246 
0.7798203204985565 
0.7744368003905361 
0.9974379825610051 
0.7442022002528033 
4.26374065143123e-6 
1.0014459714871367 
0.9982793896298724 
0.3558272203443205 
0.00603130426353716 
0.7893445291119351 
1.0012509033006065 
0.589279501411096 
0.0033885270707798465 
0.700185229982061 
0.4544490070242602 
0.6024437751090825 
0.8441083922030829 
0.10156103769815551 
0.04829587283024715 
6.745847884670936e-7 
1.0185047013017192 
1.1365470022902113 
0.048675214219681066 
0.635097410661434 
1.0243067843423308 
0.5133931279663738 
0.9615656556137778 
0.05955452590271934 
1.0000816843289575 
0.9371864942898123 
0.833330376457565 
0.0016719475976385856 
-3.192056072611338e-5 
0.007624313146755301 
0.3166289976759163 
0.6639239702340236 
