# vtk DataFile Version 3.0 
Unstructured Grid 
ASCII 
DATASET UNSTRUCTURED_GRID
POINTS 437 float 
0.5 0 0  
1 0 0  
1 1 0  
0 1 0  
0 0.5 0  
0.5 0.5 0  
0.55 0 0  
0.6 0 0  
0.65 0 0  
0.7 0 0  
0.75 0 0  
0.8 0 0  
0.85 0 0  
0.9 0 0  
0.95 0 0  
1 0.05 0  
1 0.1 0  
1 0.15 0  
1 0.2 0  
1 0.25 0  
1 0.3 0  
1 0.35 0  
1 0.4 0  
1 0.45 0  
1 0.5 0  
1 0.55 0  
1 0.6 0  
1 0.65 0  
1 0.7 0  
1 0.75 0  
1 0.8 0  
1 0.85 0  
1 0.9 0  
1 0.95 0  
0.95 1 0  
0.9 1 0  
0.85 1 0  
0.8 1 0  
0.75 1 0  
0.7 1 0  
0.65 1 0  
0.6 1 0  
0.55 1 0  
0.5 1 0  
0.45 1 0  
0.4 1 0  
0.35 1 0  
0.3 1 0  
0.25 1 0  
0.2 1 0  
0.15 1 0  
0.1 1 0  
0.05 1 0  
0 0.95 0  
0 0.9 0  
0 0.85 0  
0 0.8 0  
0 0.75 0  
0 0.7 0  
0 0.65 0  
0 0.6 0  
0 0.55 0  
0.05 0.5 0  
0.1 0.5 0  
0.15 0.5 0  
0.2 0.5 0  
0.25 0.5 0  
0.3 0.5 0  
0.35 0.5 0  
0.4 0.5 0  
0.45 0.5 0  
0.5 0.45 0  
0.5 0.4 0  
0.5 0.35 0  
0.5 0.3 0  
0.5 0.25 0  
0.5 0.2 0  
0.5 0.15 0  
0.5 0.1 0  
0.5 0.05 0  
0.7067263 0.70899034 0  
0.7462131 0.3784907 0  
0.275 0.75 0  
0.49203128 0.7759238 0  
0.8004979 0.19051445 0  
0.8169689 0.5569046 0  
0.8379451 0.8232311 0  
0.6651841 0.5643974 0  
0.6586247 0.24525054 0  
0.39886913 0.6556846 0  
0.6357807 0.845222 0  
0.15416667 0.65416664 0  
0.15469871 0.8490102 0  
0.37710553 0.86057764 0  
0.8530772 0.68242943 0  
0.5399757 0.6405682 0  
0.87012184 0.30832314 0  
0.6218386 0.41301885 0  
0.8712292 0.43948308 0  
0.6270563 0.12650847 0  
0.2721758 0.6146517 0  
0.26237586 0.88543755 0  
0.5290535 0.8872315 0  
0.8881946 0.111421056 0  
0.59896 0.74404466 0  
0.73382306 0.10964348 0  
0.7398329 0.9080902 0  
0.7300285 0.48150903 0  
0.10457365 0.74805343 0  
0.5998279 0.32869247 0  
0.4013559 0.7541197 0  
0.8998196 0.8998196 0  
0.7425495 0.27230954 0  
0.90489763 0.5939467 0  
0.7320272 0.6158908 0  
0.90734863 0.2194375 0  
0.90656686 0.7697009 0  
0.74241894 0.80003285 0  
0.632743 0.65343165 0  
0.46277094 0.5961966 0  
0.08243797 0.5905297 0  
0.08731128 0.91282296 0  
0.44904137 0.91765434 0  
0.57323986 0.55955005 0  
0.91513485 0.5138866 0  
0.1836753 0.7418762 0  
0.5856236 0.20050126 0  
0.35569865 0.5818674 0  
0.4717501 0.69469833 0  
0.8203882 0.9111774 0  
0.19848472 0.58481354 0  
0.7232736 0.19122238 0  
0.6770922 0.32269323 0  
0.80834067 0.08196056 0  
0.9230353 0.37846187 0  
0.78589296 0.72803205 0  
0.18855475 0.91950625 0  
0.6022492 0.9193816 0  
0.07701049 0.6750049 0  
0.07779311 0.8285882 0  
0.33496442 0.69013095 0  
0.22651649 0.8130275 0  
0.33345127 0.9266774 0  
0.56306595 0.81706417 0  
0.79485846 0.43853834 0  
0.57445616 0.4795266 0  
0.30524647 0.8211264 0  
0.8098617 0.6293174 0  
0.66652167 0.7748195 0  
0.44695833 0.83554715 0  
0.58482915 0.07054804 0  
0.92909133 0.6757825 0  
0.82267326 0.3699049 0  
0.6750539 0.9307201 0  
0.6726681 0.069687515 0  
0.22284219 0.6692463 0  
0.9308683 0.2891792 0  
0.930985 0.8368545 0  
0.57183284 0.395735 0  
0.56719327 0.267426 0  
0.8295321 0.2563277 0  
0.702163 0.41558313 0  
0.6631986 0.48596716 0  
0.5332523 0.7285968 0  
0.9389338 0.15767792 0  
0.9392354 0.06812419 0  
0.74606097 0.5461627 0  
0.668234 0.16889203 0  
0.82325417 0.7682245 0  
0.86888987 0.49205798 0  
0.9373707 0.42941386 0  
0.27492446 0.5574591 0  
0.7591465 0.66997904 0  
0.5625162 0.14507365 0  
0.698026 0.84136397 0  
0.33979788 0.7690552 0  
0.4100188 0.5701878 0  
0.86549294 0.1689855 0  
0.15718786 0.7919015 0  
0.14695793 0.56156343 0  
0.49887148 0.9348564 0  
0.39005366 0.9400572 0  
0.2756479 0.94468254 0  
0.79987353 0.31934652 0  
0.79108334 0.48730215 0  
0.7893297 0.13692713 0  
0.8729007 0.040251754 0  
0.65027624 0.3686311 0  
0.94156647 0.94156647 0  
0.77622527 0.94636667 0  
0.6486954 0.7048788 0  
0.5761476 0.67128414 0  
0.77190053 0.83744544 0  
0.60624254 0.5986166 0  
0.7550012 0.06245598 0  
0.50134873 0.8411101 0  
0.68467325 0.64302444 0  
0.053087775 0.72582155 0  
0.139265 0.9408418 0  
0.95088 0.7243738 0  
0.9432815 0.5566516 0  
0.86394966 0.9434744 0  
0.6805639 0.11338498 0  
0.20661557 0.866214 0  
0.5136965 0.55900043 0  
0.61441326 0.79211885 0  
0.5533345 0.9442417 0  
0.86748934 0.5476702 0  
0.45131102 0.7447211 0  
0.9522712 0.6298776 0  
0.49115333 0.6454875 0  
0.57800794 0.87019897 0  
0.14164469 0.70855445 0  
0.38005453 0.7027296 0  
0.27368295 0.69533986 0  
0.049783085 0.62717026 0  
0.049414515 0.87215096 0  
0.62649876 0.043947894 0  
0.8786532 0.85014766 0  
0.34885973 0.6374005 0  
0.5949198 0.5178657 0  
0.86131465 0.63502216 0  
0.79260343 0.80256337 0  
0.7014114 0.5166631 0  
0.40068594 0.814811 0  
0.55082065 0.3157755 0  
0.6816506 0.59935296 0  
0.3207115 0.869895 0  
0.05274013 0.55274016 0  
0.05274013 0.94725984 0  
0.6400825 0.29462123 0  
0.70826656 0.24477807 0  
0.7619463 0.22610597 0  
0.052983053 0.7814943 0  
0.7439376 0.3234126 0  
0.95078784 0.88415176 0  
0.9592077 0.22841401 0  
0.84777594 0.1277937 0  
0.9565159 0.32835326 0  
0.87450755 0.38491434 0  
0.8723333 0.26038516 0  
0.2202579 0.9566307 0  
0.5511588 0.44135624 0  
0.89094824 0.71469563 0  
0.14088513 0.8952839 0  
0.9426072 0.110777475 0  
0.5598569 0.76635987 0  
0.7797588 0.58802515 0  
0.73662144 0.7500704 0  
0.80291736 0.6806566 0  
0.3250526 0.545103 0  
0.47699997 0.87967384 0  
0.109880045 0.6315259 0  
0.9565706 0.4731244 0  
0.9520049 0.7877815 0  
0.41847795 0.61317724 0  
0.7469016 0.43319932 0  
0.6651573 0.8785795 0  
0.6980314 0.36945662 0  
0.22855084 0.7651636 0  
0.5426688 0.22467211 0  
0.85128033 0.20839585 0  
0.6080812 0.24411796 0  
0.22691919 0.54427826 0  
0.42439926 0.70143026 0  
0.87087065 0.7973803 0  
0.71672744 0.95107883 0  
0.83949435 0.5922577 0  
0.34957552 0.8123493 0  
0.51278394 0.6086165 0  
0.15431206 0.6098422 0  
0.6343587 0.9556687 0  
0.8392547 0.8737899 0  
0.7109742 0.042080052 0  
0.23100297 0.62427217 0  
0.5484106 0.51544434 0  
0.42224586 0.8707757 0  
0.10496536 0.8650706 0  
0.11225842 0.7941315 0  
0.429402 0.95576584 0  
0.46295157 0.54450357 0  
0.10164671 0.5457688 0  
0.5822864 0.63314605 0  
0.37762833 0.53745234 0  
0.8275239 0.04005421 0  
0.8323437 0.41491747 0  
0.44464156 0.7891728 0  
0.90912354 0.4597161 0  
0.26412204 0.8401569 0  
0.26712763 0.7957094 0  
0.62024623 0.47111306 0  
0.7770051 0.8863074 0  
0.8221126 0.9602037 0  
0.5225849 0.68752897 0  
0.76535124 0.17708147 0  
0.31416538 0.59776855 0  
0.53816175 0.1840494 0  
0.6130816 0.16364412 0  
0.7091263 0.2886451 0  
0.22773811 0.71831167 0  
0.9012153 0.33257928 0  
0.18447237 0.53813106 0  
0.18472914 0.6879896 0  
0.82954866 0.46472684 0  
0.17961553 0.9633957 0  
0.36685705 0.9008585 0  
0.44457012 0.65111244 0  
0.8385268 0.7209097 0  
0.7115207 0.14475605 0  
0.09503517 0.95690435 0  
0.7880896 0.39571288 0  
0.96492094 0.38520482 0  
0.5563232 0.6018296 0  
0.31393582 0.73382735 0  
0.49519077 0.7332941 0  
0.9629974 0.5187325 0  
0.5415193 0.100338124 0  
0.9036664 0.6412981 0  
0.3244769 0.96671104 0  
0.2306904 0.9144942 0  
0.035453074 0.6754281 0  
0.035497267 0.82603335 0  
0.18655832 0.81865835 0  
0.54264426 0.042344484 0  
0.70526683 0.56849337 0  
0.5891552 0.9625355 0  
0.09987184 0.7080552 0  
0.6646015 0.4450029 0  
0.62016 0.87781084 0  
0.68724763 0.7468739 0  
0.6794575 0.21179324 0  
0.66522187 0.8161647 0  
0.5348051 0.47726545 0  
0.77173877 0.09966874 0  
0.30060795 0.6489708 0  
0.5900102 0.4408019 0  
0.6355171 0.20569986 0  
0.19041659 0.6358006 0  
0.7817328 0.35663295 0  
0.85770756 0.080021024 0  
0.90471005 0.95934963 0  
0.53831446 0.36966592 0  
0.24070142 0.5850949 0  
0.63882816 0.744377 0  
0.6058876 0.3669202 0  
0.9048971 0.4124307 0  
0.5905425 0.11210937 0  
0.6993429 0.7882209 0  
0.5656613 0.9052634 0  
0.7704826 0.63249016 0  
0.8522724 0.33958897 0  
0.296919 0.9075354 0  
0.9667555 0.83175755 0  
0.5987462 0.28922248 0  
0.11813834 0.6749375 0  
0.38161784 0.6131642 0  
0.6618531 0.40398476 0  
0.6370484 0.08659111 0  
0.038074076 0.5894313 0  
0.038074076 0.9105687 0  
0.96839094 0.6753669 0  
0.14384495 0.75045496 0  
0.5411818 0.84978336 0  
0.52673554 0.8019128 0  
0.7657028 0.46494102 0  
0.961649 0.03835645 0  
0.675 0.030283678 0  
0.7518289 0.70853835 0  
0.96001375 0.18740793 0  
0.9678583 0.27471802 0  
0.67516285 0.9681792 0  
0.59831095 0.83401567 0  
0.9073243 0.5525552 0  
0.8611736 0.90393615 0  
0.5795172 0.033180732 0  
0.5208923 0.96885955 0  
0.47072348 0.967185 0  
0.6462471 0.6071309 0  
0.52937275 0.275 0  
0.26006237 0.6504962 0  
0.73740774 0.8595233 0  
0.8331797 0.2957258 0  
0.47728643 0.80960673 0  
0.9208824 0.037562877 0  
0.9040851 0.18120942 0  
0.70257896 0.8997159 0  
0.97050655 0.074435726 0  
0.36017016 0.7398202 0  
0.7106061 0.0794504 0  
0.63714504 0.33196637 0  
0.890113 0.67338765 0  
0.17423429 0.88494647 0  
0.70125586 0.4576201 0  
0.9066001 0.8085411 0  
0.71885514 0.6719225 0  
0.36035147 0.9661565 0  
0.42251006 0.5290217 0  
0.9723008 0.4259288 0  
0.64294964 0.51980066 0  
0.78817964 0.03501066 0  
0.570402 0.7144006 0  
0.12055232 0.8290842 0  
0.19649777 0.7861254 0  
0.67484623 0.27905807 0  
0.36568695 0.6714864 0  
0.97151566 0.9645467 0  
0.8305832 0.16528471 0  
0.7877058 0.2744767 0  
0.4071035 0.9074601 0  
0.8660333 0.7541822 0  
0.75281197 0.5088334 0  
0.80377316 0.22890417 0  
0.7842619 0.53388166 0  
0.80658257 0.8577738 0  
0.8967399 0.28827333 0  
0.82637364 0.5137572 0  
0.9234294 0.25649244 0  
0.30519488 0.78316474 0  
0.8318979 0.6562427 0  
0.121106885 0.5892234 0  
0.97378284 0.925 0  
0.903588 0.07469306 0  
0.5322612 0.41135144 0  
0.63939583 0.91243213 0  
0.6109627 0.7054028 0  
0.57147133 0.35136378 0  
0.6785297 0.6806924 0  
0.90144104 0.14535177 0  
0.7748313 0.76722825 0  
0.7498974 0.14247963 0  
0.61986715 0.56109023 0  
0.36870277 0.77900666 0  
0.9640754 0.59000534 0  
0.9105131 0.86591715 0  
0.027604798 0.5276048 0  
0.027604798 0.9723952 0  
0.5214134 0.7612175 0  
CELLS 792 3168 
3 407 234 112 
3 413 222 86 
3 183 234 407 
3 108 278 233 
3 97 158 344 
3 124 207 169 
[...]
POINT_DATA 437 
SCALARS T float 
LOOKUP_TABLE default 
0.5000000000012464 
0.5000000000016858 
2.1759086355917425e-28 
2.772672389656367e-34 
3.2278537573168495e-31 
-2.559277002704123e-19 
0.9999999999996166 
1.0000000000000229 
1.0000000000000255 
1.0000000000000222 
1.0000000000000584 
1.0000000000000075 
1.000000000000022 
1.000000000000034 
0.9999999999995498 
4.552639753061598e-12 
2.2340029727395473e-12 
9.269281185419508e-13 
3.7273970366544895e-13 
3.465846919783635e-14 
1.6605820673516967e-14 
-8.87020389574381e-15 
-7.334203030949657e-16 
-7.613417099046251e-18 
-1.5665454186352585e-17 
-5.920264382087876e-19 
-1.143675699649388e-20 
-4.239888061848719e-21 
8.503379268868676e-23 
3.8291209762503274e-23 
-2.3530626314965965e-24 
3.32659086326336e-26 
1.3489207191150338e-26 
-7.3698586474144765e-28 
-2.9334815863216602e-27 
-2.9468034001999856e-27 
2.711443738405128e-27 
1.781971388532964e-26 
-6.780860003875099e-27 
-1.0796137106902918e-26 
-4.232125887412718e-27 
-9.85929393536832e-28 
-2.929119875972016e-28 
1.2834379824501106e-28 
-6.080102683246193e-28 
1.0670329243860791e-29 
3.6057261517567194e-31 
-1.5493097243805563e-29 
-9.811580048651194e-30 
-1.551315789104045e-32 
7.440336503055872e-32 
5.85997976228778e-33 
8.890618543312413e-33 
8.897720724104035e-33 
-3.246552645163321e-32 
-2.4268548476413254e-32 
4.299522832732113e-31 
8.691495317367951e-31 
4.9651557016519e-31 
1.7495681370005008e-30 
2.6262266927745414e-30 
1.822513441220677e-30 
-6.363721555850615e-29 
-6.464469564595385e-29 
-2.126587144556629e-29 
-3.1916076683299876e-26 
4.322810523287127e-25 
1.2752636060134183e-25 
-1.2223604591999356e-23 
2.0594950373625738e-23 
-8.808503370445326e-22 
1.0210326156958961e-17 
2.7294650160991988e-17 
-8.575891502338937e-16 
3.6582484706249886e-15 
3.6861224609761334e-14 
3.0599256665780457e-13 
1.4140865162576148e-12 
1.6766122772983356e-12 
4.523341692934238e-12 
-1.3295293622531412e-11 
5.198357270323238e-5 
-2.3006502212350374e-17 
-2.2170057542099286e-14 
0.3438452947894214 
-2.3453740457827246e-8 
1.9917125044642617e-13 
-1.522813863063345e-8 
0.03367406796621164 
2.6121500703168716e-13 
-6.288189982589331e-17 
1.859675363106259e-17 
-6.515015460798497e-19 
2.3141772685731555e-16 
5.6429961249578986e-11 
-2.8055739760847058e-11 
0.025896089915514682 
-4.489102056452718e-6 
8.367066640064515e-5 
0.5447447520277213 
-1.217333056754735e-14 
3.67260266205166e-18 
-1.3407211257507778e-16 
0.9009037344858863 
-3.9255785941830876e-13 
0.783864551966836 
4.20240221670254e-15 
-1.6117088057148428e-7 
8.230623250183094e-20 
-7.362819157632123e-5 
-7.6903167083431e-14 
2.4277445175610447e-15 
0.030012898067931584 
-1.7090031606784937e-9 
1.578280507529462e-9 
0.26405060023200994 
8.541013807515579e-13 
3.8734688133108675e-13 
5.752534897495745e-11 
6.107910820923689e-11 
-1.0355889179185961e-18 
-2.9173537669042565e-21 
2.1065687298107216e-16 
-2.721550892869851e-9 
-2.3505960087976793e-7 
-2.7724440190192518e-17 
0.0894296555109493 
2.8676375303757166e-12 
3.0190396423842606e-12 
-1.1312965919491946e-14 
-3.7138006739704514e-16 
0.2448347984869273 
0.0011095899814368058 
0.9560482015388858 
0.0014625164796339511 
1.5515508013680097e-11 
5.209208760479014e-21 
1.6933092074830418e-16 
-5.920712360390868e-19 
-2.4004464819325623e-20 
-1.3455238115071917e-14 
9.609975579142072e-18 
1.291558766013005e-17 
1.4501084592552315e-14 
2.0320218509383993e-5 
1.1782606405129139e-8 
7.060100103121305e-17 
-7.726343371653321e-10 
-3.966213656227118e-14 
1.5669880501273269e-15 
0.8722829012974885 
-9.27509172360915e-12 
0.0013593816856982107 
5.324148361146071e-15 
0.923921475729122 
2.9815923241785575e-16 
0.039476792894556884 
3.072887529443211e-15 
-1.5446514090112183e-6 
0.0033728593248994626 
0.09556995005446138 
-3.7871585484337224e-5 
5.329434344158076e-7 
-2.206735409750367e-14 
0.5526599167606964 
0.9471546863264242 
-2.4501547986167272e-8 
0.30957665409245866 
-2.8906816734999283e-12 
2.2428719112168464e-6 
7.713813421316626e-5 
-1.881358245325226e-14 
-1.4207306476353637e-10 
0.31911484030713877 
-7.678717170796768e-14 
-2.862913486726371e-15 
-2.801197033883256e-11 
0.5554550343068491 
3.579397638804912e-18 
-2.675225041923214e-17 
-7.455691715167562e-18 
5.679754892731454e-18 
4.578951454785749e-19 
0.009006653546125154 
3.71915540246623e-8 
0.6725644007331787 
0.9929189287998289 
-4.949774551518751e-5 
-3.882860389890404e-16 
-2.070648266155677e-15 
-8.534439556030315e-12 
1.2466431117882609e-11 
-1.145732286826856e-13 
8.84298532947063e-11 
0.9630612519531663 
-1.0787918067206255e-15 
4.814289046081393e-10 
-1.531361998266453e-20 
-1.2660125596063132e-21 
-3.44352992357778e-12 
1.609203126556854e-8 
2.3648091965736608e-15 
0.7061343059989831 
-1.865764679554144e-19 
8.815646141777556e-10 
1.113642816103951e-13 
5.777805100495514e-17 
-1.0546770847515335e-7 
-2.0048683092304942e-13 
5.548593062268931e-10 
-2.4515010847411655e-11 
-1.8201731427973453e-15 
5.096063796178199e-18 
1.6363787193803163e-13 
4.921307168679839e-15 
-3.098721340495933e-19 
3.382343883053071e-21 
0.9685163413506942 
-3.9738017566933153e-14 
1.564118834700814e-13 
-4.671624979019416e-9 
5.343494734128001e-10 
-5.910965929098997e-13 
2.679376205123345e-7 
8.131454387530369e-15 
-0.0001884994253232724 
-4.075850926283404e-9 
-1.3463828323155883e-16 
-9.314319381801037e-19 
-1.426489061694143e-22 
0.001934099742632958 
0.0550687971487488 
0.13356051971641522 
-4.537629565966519e-20 
0.0027575834091702806 
-2.286804040708629e-15 
0.10828122373190031 
0.7989990804266331 
0.006263916492411512 
0.0013285724702917431 
0.10142856462825903 
-2.374425563255961e-19 
8.660639881091329e-7 
-8.550149302507108e-12 
4.367857784866442e-20 
0.780209524390441 
-5.609492427518038e-14 
9.182721853574815e-10 
-3.422720478344537e-12 
2.4430531105409787e-11 
-4.317536774918313e-13 
-1.3842213049028748e-16 
2.8923977249428218e-18 
3.2405020828036702e-6 
3.3002067542198124e-13 
-1.3962926916552996e-11 
-1.3369286929540515e-5 
-2.6736867183021193e-14 
-0.00015895877384836942 
-7.362691514725176e-17 
0.02593125859314627 
0.29247497182556054 
0.020835545266592138 
5.750005195908814e-15 
1.0772090085133853e-12 
7.001806667513117e-13 
-8.677605514582468e-16 
-1.0796347760243797e-8 
1.0428653083654597e-15 
1.3493676177892482e-10 
-2.8309110715919077e-17 
4.487320379370086e-16 
-1.5522105968752064e-14 
0.9796737207556167 
1.8925618351426592e-16 
-2.2116734322600135e-8 
-1.2157129536920693e-15 
4.3204664095515176e-20 
-1.1246607659847702e-19 
5.192520287863968e-17 
5.237529278688256e-11 
7.757968997494742e-18 
1.3295652903634694e-10 
3.8909371704392286e-12 
0.9990941199549537 
0.00016462922775003477 
-1.0481826123655114e-14 
1.8503262438742747e-5 
-2.215700485177883e-18 
1.1922957901880844e-17 
8.171105176939414e-7 
2.466628757948714e-14 
6.3566171652199465e-16 
1.2932379719746908e-12 
0.3809680694832849 
-2.5465897845794964e-15 
0.09712361052869543 
0.2708792139737571 
0.011530447651624275 
-1.5725684984576658e-18 
0.011049624114951374 
-3.7207196839422274e-16 
-7.667822767324216e-17 
7.06163495939389e-6 
-1.4833777019006676e-20 
-5.67971479056727e-17 
-1.2717142282444942e-11 
6.034092717341894e-13 
0.529631204080998 
-3.9151311003121516e-22 
0.00020609380372633914 
0.0005226163278402416 
4.802290229827524e-11 
-9.767240575299612e-16 
-6.726226357087859e-14 
2.1771822241747755e-7 
0.5051151829534771 
2.770771200580193e-10 
9.231925633998631e-19 
1.3413476207130444e-18 
6.990576654270358e-20 
1.16930933254415e-20 
-1.619021061246675e-19 
0.8541927203484272 
-1.1773209744882543e-8 
1.9743463967245862e-17 
2.5514699580226983e-19 
-1.5897616099887013e-6 
-4.2378585978168685e-15 
-3.709160786412321e-12 
0.12169321051975668 
1.2378522640905125e-13 
1.875706531295468e-8 
0.8677592030881526 
-5.31231002404992e-14 
8.369537478019435e-7 
0.1047677834605046 
-3.694451604577029e-17 
0.0014677936684097297 
0.9658093589022192 
-1.8635502913341403e-16 
-2.6883089433697654e-5 
7.70688932228337e-15 
-2.0221098051564933e-12 
-5.386081007567432e-5 
0.00033471399569493334 
0.6006288949476182 
9.900591289832513e-13 
-1.058261108658462e-16 
9.109092715572486e-11 
0.007411788122114304 
-4.496288936092624e-18 
-1.484207216048033e-14 
0.0019883317396307905 
-1.730500649209055e-19 
1.6295652910448153e-12 
-3.335072106024687e-5 
0.8297310324492068 
2.967316804238935e-20 
-1.3639830863070368e-21 
-2.961081268107781e-11 
1.480861462443565e-18 
-6.662735090195852e-16 
1.322477558226031e-14 
8.597916969616308e-7 
0.9104834880756322 
0.9909266516019466 
-7.651765666717292e-11 
0.2595853094648693 
0.025448585135440308 
-1.138026229586159e-16 
6.800581521470502e-15 
-7.728644224559421e-8 
-4.414503427442372e-15 
0.9719766922246308 
1.5320280316959484e-17 
-4.152138594833591e-17 
-1.8216664028073307e-9 
0.0017650719374898518 
5.689090421913506e-16 
-3.9195199682157906e-14 
0.030102349329204792 
1.1358479642099483e-14 
0.9954934575655482 
0.5071190454688619 
7.060271648299607e-15 
0.6186354261026659 
-2.2899547830346376e-14 
0.9061947257122239 
1.9047674232097734e-5 
5.604045081420305e-11 
-8.265324218978738e-20 
-1.5575629541049105e-6 
7.11737367517998e-15 
2.0827969699558829e-10 
3.1366939633764556e-18 
-1.4093566261413232e-11 
5.7577730896672945e-5 
3.231553710714232e-8 
0.9972742623975335 
-8.878916341821722e-13 
-2.777876255022943e-19 
1.0149263075610701e-17 
0.010562922830940579 
2.4872690263330633e-13 
1.3547256363491098e-16 
0.5428504176823253 
0.03736686246578922 
-2.356610552652746e-16 
-1.0784992295906465e-12 
3.331700878332767e-8 
0.15705530067294082 
-4.297070409066734e-8 
9.198073901871782e-14 
0.046400396428404406 
-1.6768437415018264e-8 
0.10660511775341262 
3.142878262412938e-16 
1.593345824130562e-10 
1.6803762017325287e-17 
2.032243398045771e-16 
0.9995084873698843 
1.8656632775504675e-6 
-1.2126835215600316e-15 
-1.974286325831717e-12 
-6.613162681193552e-5 
4.9113480852825517e-11 
0.716332242470657 
2.7137728000791905e-12 
0.5909155640701236 
-7.935134967426653e-9 
-9.452006984626373e-15 
3.0615516649661165e-9 
1.2500098113902208e-15 
-1.6167369487059456e-20 
7.884638142143823e-23 
-4.7226515150858687e-14 
