# vtk DataFile Version 3.0 
Unstructured Grid 
ASCII 
DATASET UNSTRUCTURED_GRID
POINTS 437 float 
0.5 0 0  
1 0 0  
1 1 0  
0 1 0  
0 0.5 0  
0.5 0.5 0  
0.55 0 0  
0.6 0 0  
0.65 0 0  
0.7 0 0  
0.75 0 0  
0.8 0 0  
0.85 0 0  
0.9 0 0  
0.95 0 0  
1 0.05 0  
1 0.1 0  
1 0.15 0  
1 0.2 0  
1 0.25 0  
1 0.3 0  
1 0.35 0  
1 0.4 0  
1 0.45 0  
1 0.5 0  
1 0.55 0  
1 0.6 0  
1 0.65 0  
1 0.7 0  
1 0.75 0  
1 0.8 0  
1 0.85 0  
1 0.9 0  
1 0.95 0  
0.95 1 0  
0.9 1 0  
0.85 1 0  
0.8 1 0  
0.75 1 0  
0.7 1 0  
0.65 1 0  
0.6 1 0  
0.55 1 0  
0.5 1 0  
0.45 1 0  
0.4 1 0  
0.35 1 0  
0.3 1 0  
0.25 1 0  
0.2 1 0  
0.15 1 0  
0.1 1 0  
0.05 1 0  
0 0.95 0  
0 0.9 0  
0 0.85 0  
0 0.8 0  
0 0.75 0  
0 0.7 0  
0 0.65 0  
0 0.6 0  
0 0.55 0  
0.05 0.5 0  
0.1 0.5 0  
0.15 0.5 0  
0.2 0.5 0  
0.25 0.5 0  
0.3 0.5 0  
0.35 0.5 0  
0.4 0.5 0  
0.45 0.5 0  
0.5 0.45 0  
0.5 0.4 0  
0.5 0.35 0  
0.5 0.3 0  
0.5 0.25 0  
0.5 0.2 0  
0.5 0.15 0  
0.5 0.1 0  
0.5 0.05 0  
0.7067263 0.70899034 0  
0.7462131 0.3784907 0  
0.275 0.75 0  
0.49203128 0.7759238 0  
0.8004979 0.19051445 0  
0.8169689 0.5569046 0  
0.8379451 0.8232311 0  
0.6651841 0.5643974 0  
0.6586247 0.24525054 0  
0.39886913 0.6556846 0  
0.6357807 0.845222 0  
0.15416667 0.65416664 0  
0.15469871 0.8490102 0  
0.37710553 0.86057764 0  
0.8530772 0.68242943 0  
0.5399757 0.6405682 0  
0.87012184 0.30832314 0  
0.6218386 0.41301885 0  
0.8712292 0.43948308 0  
0.6270563 0.12650847 0  
0.2721758 0.6146517 0  
0.26237586 0.88543755 0  
0.5290535 0.8872315 0  
0.8881946 0.111421056 0  
0.59896 0.74404466 0  
0.73382306 0.10964348 0  
0.7398329 0.9080902 0  
0.7300285 0.48150903 0  
0.10457365 0.74805343 0  
0.5998279 0.32869247 0  
0.4013559 0.7541197 0  
0.8998196 0.8998196 0  
0.7425495 0.27230954 0  
0.90489763 0.5939467 0  
0.7320272 0.6158908 0  
0.90734863 0.2194375 0  
0.90656686 0.7697009 0  
0.74241894 0.80003285 0  
0.632743 0.65343165 0  
0.46277094 0.5961966 0  
0.08243797 0.5905297 0  
0.08731128 0.91282296 0  
0.44904137 0.91765434 0  
0.57323986 0.55955005 0  
0.91513485 0.5138866 0  
0.1836753 0.7418762 0  
0.5856236 0.20050126 0  
0.35569865 0.5818674 0  
0.4717501 0.69469833 0  
0.8203882 0.9111774 0  
0.19848472 0.58481354 0  
0.7232736 0.19122238 0  
0.6770922 0.32269323 0  
0.80834067 0.08196056 0  
0.9230353 0.37846187 0  
0.78589296 0.72803205 0  
0.18855475 0.91950625 0  
0.6022492 0.9193816 0  
0.07701049 0.6750049 0  
0.07779311 0.8285882 0  
0.33496442 0.69013095 0  
0.22651649 0.8130275 0  
0.33345127 0.9266774 0  
0.56306595 0.81706417 0  
0.79485846 0.43853834 0  
0.57445616 0.4795266 0  
0.30524647 0.8211264 0  
0.8098617 0.6293174 0  
0.66652167 0.7748195 0  
0.44695833 0.83554715 0  
0.58482915 0.07054804 0  
0.92909133 0.6757825 0  
0.82267326 0.3699049 0  
0.6750539 0.9307201 0  
0.6726681 0.069687515 0  
0.22284219 0.6692463 0  
0.9308683 0.2891792 0  
0.930985 0.8368545 0  
0.57183284 0.395735 0  
0.56719327 0.267426 0  
0.8295321 0.2563277 0  
0.702163 0.41558313 0  
0.6631986 0.48596716 0  
0.5332523 0.7285968 0  
0.9389338 0.15767792 0  
0.9392354 0.06812419 0  
0.74606097 0.5461627 0  
0.668234 0.16889203 0  
0.82325417 0.7682245 0  
0.86888987 0.49205798 0  
0.9373707 0.42941386 0  
0.27492446 0.5574591 0  
0.7591465 0.66997904 0  
0.5625162 0.14507365 0  
0.698026 0.84136397 0  
0.33979788 0.7690552 0  
0.4100188 0.5701878 0  
0.86549294 0.1689855 0  
0.15718786 0.7919015 0  
0.14695793 0.56156343 0  
0.49887148 0.9348564 0  
0.39005366 0.9400572 0  
0.2756479 0.94468254 0  
0.79987353 0.31934652 0  
0.79108334 0.48730215 0  
0.7893297 0.13692713 0  
0.8729007 0.040251754 0  
0.65027624 0.3686311 0  
0.94156647 0.94156647 0  
0.77622527 0.94636667 0  
0.6486954 0.7048788 0  
0.5761476 0.67128414 0  
0.77190053 0.83744544 0  
0.60624254 0.5986166 0  
0.7550012 0.06245598 0  
0.50134873 0.8411101 0  
0.68467325 0.64302444 0  
0.053087775 0.72582155 0  
0.139265 0.9408418 0  
0.95088 0.7243738 0  
0.9432815 0.5566516 0  
0.86394966 0.9434744 0  
0.6805639 0.11338498 0  
0.20661557 0.866214 0  
0.5136965 0.55900043 0  
0.61441326 0.79211885 0  
0.5533345 0.9442417 0  
0.86748934 0.5476702 0  
0.45131102 0.7447211 0  
0.9522712 0.6298776 0  
0.49115333 0.6454875 0  
0.57800794 0.87019897 0  
0.14164469 0.70855445 0  
0.38005453 0.7027296 0  
0.27368295 0.69533986 0  
0.049783085 0.62717026 0  
0.049414515 0.87215096 0  
0.62649876 0.043947894 0  
0.8786532 0.85014766 0  
0.34885973 0.6374005 0  
0.5949198 0.5178657 0  
0.86131465 0.63502216 0  
0.79260343 0.80256337 0  
0.7014114 0.5166631 0  
0.40068594 0.814811 0  
0.55082065 0.3157755 0  
0.6816506 0.59935296 0  
0.3207115 0.869895 0  
0.05274013 0.55274016 0  
0.05274013 0.94725984 0  
0.6400825 0.29462123 0  
0.70826656 0.24477807 0  
0.7619463 0.22610597 0  
0.052983053 0.7814943 0  
0.7439376 0.3234126 0  
0.95078784 0.88415176 0  
0.9592077 0.22841401 0  
0.84777594 0.1277937 0  
0.9565159 0.32835326 0  
0.87450755 0.38491434 0  
0.8723333 0.26038516 0  
0.2202579 0.9566307 0  
0.5511588 0.44135624 0  
0.89094824 0.71469563 0  
0.14088513 0.8952839 0  
0.9426072 0.110777475 0  
0.5598569 0.76635987 0  
0.7797588 0.58802515 0  
0.73662144 0.7500704 0  
0.80291736 0.6806566 0  
0.3250526 0.545103 0  
0.47699997 0.87967384 0  
0.109880045 0.6315259 0  
0.9565706 0.4731244 0  
0.9520049 0.7877815 0  
0.41847795 0.61317724 0  
0.7469016 0.43319932 0  
0.6651573 0.8785795 0  
0.6980314 0.36945662 0  
0.22855084 0.7651636 0  
0.5426688 0.22467211 0  
0.85128033 0.20839585 0  
0.6080812 0.24411796 0  
0.22691919 0.54427826 0  
0.42439926 0.70143026 0  
0.87087065 0.7973803 0  
0.71672744 0.95107883 0  
0.83949435 0.5922577 0  
0.34957552 0.8123493 0  
0.51278394 0.6086165 0  
0.15431206 0.6098422 0  
0.6343587 0.9556687 0  
0.8392547 0.8737899 0  
0.7109742 0.042080052 0  
0.23100297 0.62427217 0  
0.5484106 0.51544434 0  
0.42224586 0.8707757 0  
0.10496536 0.8650706 0  
0.11225842 0.7941315 0  
0.429402 0.95576584 0  
0.46295157 0.54450357 0  
0.10164671 0.5457688 0  
0.5822864 0.63314605 0  
0.37762833 0.53745234 0  
0.8275239 0.04005421 0  
0.8323437 0.41491747 0  
0.44464156 0.7891728 0  
0.90912354 0.4597161 0  
0.26412204 0.8401569 0  
0.26712763 0.7957094 0  
0.62024623 0.47111306 0  
0.7770051 0.8863074 0  
0.8221126 0.9602037 0  
0.5225849 0.68752897 0  
0.76535124 0.17708147 0  
0.31416538 0.59776855 0  
0.53816175 0.1840494 0  
0.6130816 0.16364412 0  
0.7091263 0.2886451 0  
0.22773811 0.71831167 0  
0.9012153 0.33257928 0  
0.18447237 0.53813106 0  
0.18472914 0.6879896 0  
0.82954866 0.46472684 0  
0.17961553 0.9633957 0  
0.36685705 0.9008585 0  
0.44457012 0.65111244 0  
0.8385268 0.7209097 0  
0.7115207 0.14475605 0  
0.09503517 0.95690435 0  
0.7880896 0.39571288 0  
0.96492094 0.38520482 0  
0.5563232 0.6018296 0  
0.31393582 0.73382735 0  
0.49519077 0.7332941 0  
0.9629974 0.5187325 0  
0.5415193 0.100338124 0  
0.9036664 0.6412981 0  
0.3244769 0.96671104 0  
0.2306904 0.9144942 0  
0.035453074 0.6754281 0  
0.035497267 0.82603335 0  
0.18655832 0.81865835 0  
0.54264426 0.042344484 0  
0.70526683 0.56849337 0  
0.5891552 0.9625355 0  
0.09987184 0.7080552 0  
0.6646015 0.4450029 0  
0.62016 0.87781084 0  
0.68724763 0.7468739 0  
0.6794575 0.21179324 0  
0.66522187 0.8161647 0  
0.5348051 0.47726545 0  
0.77173877 0.09966874 0  
0.30060795 0.6489708 0  
0.5900102 0.4408019 0  
0.6355171 0.20569986 0  
0.19041659 0.6358006 0  
0.7817328 0.35663295 0  
0.85770756 0.080021024 0  
0.90471005 0.95934963 0  
0.53831446 0.36966592 0  
0.24070142 0.5850949 0  
0.63882816 0.744377 0  
0.6058876 0.3669202 0  
0.9048971 0.4124307 0  
0.5905425 0.11210937 0  
0.6993429 0.7882209 0  
0.5656613 0.9052634 0  
0.7704826 0.63249016 0  
0.8522724 0.33958897 0  
0.296919 0.9075354 0  
0.9667555 0.83175755 0  
0.5987462 0.28922248 0  
0.11813834 0.6749375 0  
0.38161784 0.6131642 0  
0.6618531 0.40398476 0  
0.6370484 0.08659111 0  
0.038074076 0.5894313 0  
0.038074076 0.9105687 0  
0.96839094 0.6753669 0  
0.14384495 0.75045496 0  
0.5411818 0.84978336 0  
0.52673554 0.8019128 0  
0.7657028 0.46494102 0  
0.961649 0.03835645 0  
0.675 0.030283678 0  
0.7518289 0.70853835 0  
0.96001375 0.18740793 0  
0.9678583 0.27471802 0  
0.67516285 0.9681792 0  
0.59831095 0.83401567 0  
0.9073243 0.5525552 0  
0.8611736 0.90393615 0  
0.5795172 0.033180732 0  
0.5208923 0.96885955 0  
0.47072348 0.967185 0  
0.6462471 0.6071309 0  
0.52937275 0.275 0  
0.26006237 0.6504962 0  
0.73740774 0.8595233 0  
0.8331797 0.2957258 0  
0.47728643 0.80960673 0  
0.9208824 0.037562877 0  
0.9040851 0.18120942 0  
0.70257896 0.8997159 0  
0.97050655 0.074435726 0  
0.36017016 0.7398202 0  
0.7106061 0.0794504 0  
0.63714504 0.33196637 0  
0.890113 0.67338765 0  
0.17423429 0.88494647 0  
0.70125586 0.4576201 0  
0.9066001 0.8085411 0  
0.71885514 0.6719225 0  
0.36035147 0.9661565 0  
0.42251006 0.5290217 0  
0.9723008 0.4259288 0  
0.64294964 0.51980066 0  
0.78817964 0.03501066 0  
0.570402 0.7144006 0  
0.12055232 0.8290842 0  
0.19649777 0.7861254 0  
0.67484623 0.27905807 0  
0.36568695 0.6714864 0  
0.97151566 0.9645467 0  
0.8305832 0.16528471 0  
0.7877058 0.2744767 0  
0.4071035 0.9074601 0  
0.8660333 0.7541822 0  
0.75281197 0.5088334 0  
0.80377316 0.22890417 0  
0.7842619 0.53388166 0  
0.80658257 0.8577738 0  
0.8967399 0.28827333 0  
0.82637364 0.5137572 0  
0.9234294 0.25649244 0  
0.30519488 0.78316474 0  
0.8318979 0.6562427 0  
0.121106885 0.5892234 0  
0.97378284 0.925 0  
0.903588 0.07469306 0  
0.5322612 0.41135144 0  
0.63939583 0.91243213 0  
0.6109627 0.7054028 0  
0.57147133 0.35136378 0  
0.6785297 0.6806924 0  
0.90144104 0.14535177 0  
0.7748313 0.76722825 0  
0.7498974 0.14247963 0  
0.61986715 0.56109023 0  
0.36870277 0.77900666 0  
0.9640754 0.59000534 0  
0.9105131 0.86591715 0  
0.027604798 0.5276048 0  
0.027604798 0.9723952 0  
0.5214134 0.7612175 0  
CELLS 792 3168 
3 407 234 112 
3 413 222 86 
3 183 234 407 
3 108 278 233 
3 97 158 344 
3 124 207 169 
[...]
POINT_DATA 437 
SCALARS T float 
LOOKUP_TABLE default 
0.5000000000012899 
0.5000000000016751 
5.9804959086622334e-18 
2.3729643683971492e-12 
4.089529289010416e-14 
1.0281810420402085e-11 
0.9999999999996504 
1.0000000000000078 
1.0000000000000027 
0.9999999999999991 
0.999999999999993 
0.9999999999999931 
1.0000000000000153 
1.0000000000000302 
0.9999999999995309 
4.592379065175714e-12 
2.3092816737747914e-12 
9.85275984054922e-13 
7.07610819954526e-13 
3.626997333767283e-13 
1.3050849041222592e-13 
6.180315616229324e-14 
3.703373536602372e-14 
-1.4182425680415964e-14 
9.083072983350963e-15 
-3.1640087876451636e-14 
-7.032632276438704e-15 
-2.2565818898273457e-15 
1.946263323234615e-16 
8.130409969344617e-16 
2.8391415568415215e-16 
1.6345241471800903e-16 
5.516491850955761e-17 
-2.408962538224051e-17 
-6.844056821621571e-17 
-2.04015667724508e-17 
-5.484750197428967e-16 
1.8313472708965335e-15 
8.703376116314617e-15 
4.837112262932237e-14 
1.4513651371182034e-13 
3.2766540945171437e-13 
6.566301490363294e-13 
9.966825666196828e-13 
1.4660912111172345e-12 
1.9997186049121554e-12 
2.0431287961047896e-12 
2.838713999677239e-12 
2.23663292352968e-12 
2.3623889253277043e-12 
2.5889529840011564e-12 
1.700139941130265e-12 
1.5167815093516569e-12 
1.0107022859003061e-11 
1.3956647228530961e-11 
1.502300347197547e-11 
1.3442603210475685e-11 
1.0179618208856548e-11 
6.3659993679972115e-12 
3.190057090799829e-12 
1.0831593937457997e-12 
3.37112963720505e-13 
1.9750280947184246e-14 
2.194473214893868e-14 
-3.2663475102441595e-15 
8.76039576037542e-15 
7.782476978138704e-16 
-1.2044155294263105e-14 
-8.179130080064759e-15 
1.538323198866152e-14 
-1.8940436460415447e-13 
1.1177105927461332e-11 
8.967713970043898e-12 
7.534035326619464e-12 
6.634839140452815e-12 
5.15663635476204e-12 
4.2135856611485056e-12 
4.173466046462449e-12 
3.0990161309623712e-12 
4.576916089911474e-12 
0.32734886534660584 
0.9854001798644896 
0.8074638800402868 
0.6753868092359145 
1.0007576307691006 
0.3684230906711469 
0.002446027524814799 
0.8866098541086086 
0.9948961613645337 
0.7895948020411812 
0.14473630014883973 
0.21344376855574293 
0.7705643761796761 
0.5853068820628359 
0.036791802832614594 
0.9313599161789687 
0.8069152743693533 
1.0019500291657775 
0.43982097926458186 
0.9968177259998868 
0.18204410057252882 
0.6136794546161926 
0.22631049089781924 
1.0074921181350904 
0.5348659358518616 
1.00021080415391 
0.006683061292901298 
0.9018842545651821 
0.43426697869147673 
0.9727019848211601 
0.8669848624578422 
1.9651620471892814e-5 
1.000308046517356 
0.030830639517495748 
0.5389342885209293 
0.826891061396326 
0.0007424754102020073 
0.060944840376773377 
0.7436099449463045 
0.789545062191467 
0.04269466545402138 
0.41963106225137836 
0.2638766226726008 
1.0087391162352557 
0.08272111207460642 
0.6496189817178187 
0.9748694425071702 
0.1657862654894034 
0.9179234862616324 
0.00042003239436594873 
0.04952555040584655 
0.9994659147796058 
1.0009034266614671 
0.9972443919262616 
0.2787506912549987 
0.0853671395397292 
0.5338052131353915 
0.06487260652179622 
0.18734474661904765 
0.47472314824852846 
0.7449347527740295 
0.8116180409707026 
0.39913022887951105 
0.3721192910581233 
0.8173547499007672 
0.9431716884158198 
0.7849860513469896 
0.20357587578304714 
0.25107960406842805 
0.5560734756879329 
0.997586584282208 
0.0030771479368304306 
0.8706321281415095 
0.016500217071205164 
0.9993084699716792 
0.37762669557663653 
0.45035323493143103 
-2.2017600404883613e-5 
0.9464853015157059 
0.9078765063060051 
0.9867128902005651 
0.9908272573463968 
0.9684014322639888 
0.7403679934506269 
0.751504377464115 
0.9551650828873242 
0.7122102194561568 
1.0013028300787847 
0.014962634392459151 
0.30208449347910865 
0.1175484929373392 
0.02289046700815339 
0.26988903456229835 
0.9486630848462081 
0.06597162676975522 
0.8615887624414256 
0.24209364601298888 
0.9856391356654104 
0.7573990474457273 
0.019269090943149884 
0.161927792436903 
0.3330467347177832 
0.4637265109555166 
0.9820804324367465 
0.7037552806326401 
1.0002262076843849 
0.9946234135718973 
0.9981936039168742 
-1.993629396697839e-5 
0.0002743533093427017 
0.5241317902426131 
0.8145980496137911 
0.015132285429443516 
0.9129971881595952 
1.0011301989581232 
0.43199059754246 
0.617294158808099 
0.7199817261614022 
0.6302522828915146 
7.742720384742645e-5 
0.01655483217484272 
-9.879116333502963e-5 
1.000682442647736 
0.7396246429986988 
0.9736153838894556 
0.3304106044594836 
0.08594702726977295 
0.17685687979631645 
0.8335506493761901 
0.0021122894427205133 
0.9718758114078659 
0.19213722577688577 
0.5257279095631829 
0.8755399250747629 
0.6173491097050795 
0.1693386290956775 
1.0964847192374676 
0.9989348638981501 
0.0001507332818760549 
0.49098516048627827 
0.9373087763739699 
0.06566120066019712 
0.017815982272420382 
0.8975025549178032 
0.7055361170703635 
1.0928706673040416 
0.7615357084531449 
0.6388960698740748 
0.02132987289894084 
0.5644330858489811 
1.0062770481538763 
1.0016603832621482 
1.0005879580449175 
0.9965693796506392 
1.0003845675883254 
-2.666678271876431e-5 
0.3343890535144284 
1.0081153042140814 
0.16834262823990215 
0.5843029607030756 
0.8981262177948767 
0.4693131115481276 
1.1676977197725915 
0.004463079432877643 
0.75501081930346 
0.8487812801795871 
0.5612760930201117 
0.4362692979219502 
0.1405499067388594 
0.12097660248569829 
0.02450528198045276 
0.34818360413859456 
0.1408726418101899 
0.029727109786296807 
-0.0001034363786214538 
0.6440194701586843 
0.9410874904748318 
0.057494652623390034 
0.9995768352919558 
0.7942411805018177 
0.8612278796473354 
0.9981362419454078 
1.0159189076733908 
0.011442986016025643 
0.9189242209995893 
0.0012384495254815428 
0.003917966041253597 
0.183932359515961 
0.7716269418093858 
0.9998657479339709 
0.09309643057068255 
0.023549994945772767 
0.0004524733618707432 
1.0001461079098646 
0.17231397580824906 
1.1894961993664737 
0.48196036662529795 
0.6652809426635434 
0.7049061665550947 
0.24514384658895932 
0.2786373913498029 
0.01174255242205936 
0.8839724618057626 
0.03744535972583792 
1.0011662968096713 
0.7234262299892503 
0.7191341494409806 
0.18285497234017475 
0.7618267090876029 
0.8345390274862711 
1.0200807841717667 
0.0034691810223591657 
0.00010434485004633408 
0.865706474543687 
1.000136700700067 
0.16291156821342406 
0.7239290787943232 
0.9954047810619835 
1.0000903994395816 
0.6421129632858584 
0.5548116103394175 
0.007818203883632902 
0.40941118697282225 
0.5931986892385691 
0.40863536014646296 
0.44870466704327544 
0.9064839330599235 
0.0270405730861286 
1.0004520489606534 
0.4588697091821408 
0.9186020392055833 
0.07080228859301774 
0.9680093416214847 
0.833723784847406 
0.7968135797058259 
0.006469859256216686 
0.8060515687912273 
0.014455473539933327 
0.3271536961554759 
0.5851975292039497 
0.39626767291080883 
1.1447381973462147 
0.8069557263714919 
0.8685341796651346 
0.777470720133283 
0.05281230448689423 
0.3627146934459624 
0.9863714042129075 
0.10850265105600226 
0.27187639346726117 
1.0015255679220625 
0.14809631493776917 
1.210162612038415 
0.9992485529995837 
0.4192290807005399 
0.9828344163061576 
0.9935439823500335 
0.19135483831746353 
0.9688081921394891 
0.9962153140089401 
-1.927578489669171e-6 
1.0712703817593936 
0.0686448659412663 
0.42136385144300836 
1.004720979146901 
0.3115057890442655 
0.9776503140063285 
0.14479851774846586 
0.13333298232840002 
0.3315899967332937 
0.8271251182056918 
0.5140365221496558 
-2.5316128905736223e-5 
0.9589962931786763 
0.3407843348923104 
0.4558968233339181 
0.9997181192952808 
1.0035453350030117 
0.07534626963037985 
1.0104037461032809 
0.0003195424251959891 
0.7046053221820457 
0.3195485013017504 
0.5119314494836802 
0.8448980311295494 
0.9166141930161297 
1.0002372384797984 
0.192308582061822 
0.4409845183588017 
0.1788904128134844 
0.008484178052155004 
0.24441892453570915 
0.06401565543117907 
1.1041358361982482e-5 
0.996685647500713 
0.0869519167624977 
0.14033162737119487 
0.833031873594474 
0.7699240505980303 
0.3396513453758499 
0.021893146103389764 
0.9536940787609297 
0.5903818645174779 
0.997711836941712 
0.9266691904321421 
0.019206019795248767 
0.6197564332115628 
0.8782112798083137 
1.000025149514456 
0.997252436351383 
0.013924759399934863 
0.6565290569978841 
0.9729938159032404 
0.0002831101912673587 
0.4034865857143472 
0.266859228493761 
0.06457727006780327 
0.029504275742510577 
0.982079777439352 
1.0012107373899397 
0.7076146668992099 
0.8553715355914177 
0.7961603925193758 
0.9974379812494782 
0.7447276108766897 
4.2587192950049016e-6 
1.0014459719908737 
0.99827938691026 
0.35629573373961154 
0.006031269058458787 
0.7893445844672906 
1.0012509040114559 
0.5892794606549431 
0.0033887023099079512 
0.7001852306469036 
0.4544490149828314 
0.6024437744943724 
0.8478079873692753 
0.10156097525193009 
0.05267277779253399 
6.718715528328291e-7 
1.0185047012256434 
1.136546858718366 
0.04867576600239323 
0.6350987108972171 
1.0243067150830136 
0.5133934401995134 
0.9615656555395109 
0.05955430946600471 
1.00008168490486 
0.9371860205237132 
0.834477528944094 
0.001671954322245608 
-3.192677545093685e-5 
0.010051748478596278 
0.3845038289892062 
0.6639432455634372 
