# vtk DataFile Version 3.0 
Unstructured Grid 
ASCII 
DATASET UNSTRUCTURED_GRID
POINTS 437 float 
0.5 0 0  
1 0 0  
1 1 0  
0 1 0  
0 0.5 0  
0.5 0.5 0  
0.55 0 0  
0.6 0 0  
0.65 0 0  
0.7 0 0  
0.75 0 0  
0.8 0 0  
0.85 0 0  
0.9 0 0  
0.95 0 0  
1 0.05 0  
1 0.1 0  
1 0.15 0  
1 0.2 0  
1 0.25 0  
1 0.3 0  
1 0.35 0  
1 0.4 0  
1 0.45 0  
1 0.5 0  
1 0.55 0  
1 0.6 0  
1 0.65 0  
1 0.7 0  
1 0.75 0  
1 0.8 0  
1 0.85 0  
1 0.9 0  
1 0.95 0  
0.95 1 0  
0.9 1 0  
0.85 1 0  
0.8 1 0  
0.75 1 0  
0.7 1 0  
0.65 1 0  
0.6 1 0  
0.55 1 0  
0.5 1 0  
0.45 1 0  
0.4 1 0  
0.35 1 0  
0.3 1 0  
0.25 1 0  
0.2 1 0  
0.15 1 0  
0.1 1 0  
0.05 1 0  
0 0.95 0  
0 0.9 0  
0 0.85 0  
0 0.8 0  
0 0.75 0  
0 0.7 0  
0 0.65 0  
0 0.6 0  
0 0.55 0  
0.05 0.5 0  
0.1 0.5 0  
0.15 0.5 0  
0.2 0.5 0  
0.25 0.5 0  
0.3 0.5 0  
0.35 0.5 0  
0.4 0.5 0  
0.45 0.5 0  
0.5 0.45 0  
0.5 0.4 0  
0.5 0.35 0  
0.5 0.3 0  
0.5 0.25 0  
0.5 0.2 0  
0.5 0.15 0  
0.5 0.1 0  
0.5 0.05 0  
0.7067263 0.70899034 0  
0.7462131 0.3784907 0  
0.275 0.75 0  
0.49203128 0.7759238 0  
0.8004979 0.19051445 0  
0.8169689 0.5569046 0  
0.8379451 0.8232311 0  
0.6651841 0.5643974 0  
0.6586247 0.24525054 0  
0.39886913 0.6556846 0  
0.6357807 0.845222 0  
0.15416667 0.65416664 0  
0.15469871 0.8490102 0  
0.37710553 0.86057764 0  
0.8530772 0.68242943 0  
0.5399757 0.6405682 0  
0.87012184 0.30832314 0  
0.6218386 0.41301885 0  
0.8712292 0.43948308 0  
0.6270563 0.12650847 0  
0.2721758 0.6146517 0  
0.26237586 0.88543755 0  
0.5290535 0.8872315 0  
0.8881946 0.111421056 0  
0.59896 0.74404466 0  
0.73382306 0.10964348 0  
0.7398329 0.9080902 0  
0.7300285 0.48150903 0  
0.10457365 0.74805343 0  
0.5998279 0.32869247 0  
0.4013559 0.7541197 0  
0.8998196 0.8998196 0  
0.7425495 0.27230954 0  
0.90489763 0.5939467 0  
0.7320272 0.6158908 0  
0.90734863 0.2194375 0  
0.90656686 0.7697009 0  
0.74241894 0.80003285 0  
0.632743 0.65343165 0  
0.46277094 0.5961966 0  
0.08243797 0.5905297 0  
0.08731128 0.91282296 0  
0.44904137 0.91765434 0  
0.57323986 0.55955005 0  
0.91513485 0.5138866 0  
0.1836753 0.7418762 0  
0.5856236 0.20050126 0  
0.35569865 0.5818674 0  
0.4717501 0.69469833 0  
0.8203882 0.9111774 0  
0.19848472 0.58481354 0  
0.7232736 0.19122238 0  
0.6770922 0.32269323 0  
0.80834067 0.08196056 0  
0.9230353 0.37846187 0  
0.78589296 0.72803205 0  
0.18855475 0.91950625 0  
0.6022492 0.9193816 0  
0.07701049 0.6750049 0  
0.07779311 0.8285882 0  
0.33496442 0.69013095 0  
0.22651649 0.8130275 0  
0.33345127 0.9266774 0  
0.56306595 0.81706417 0  
0.79485846 0.43853834 0  
0.57445616 0.4795266 0  
0.30524647 0.8211264 0  
0.8098617 0.6293174 0  
0.66652167 0.7748195 0  
0.44695833 0.83554715 0  
0.58482915 0.07054804 0  
0.92909133 0.6757825 0  
0.82267326 0.3699049 0  
0.6750539 0.9307201 0  
0.6726681 0.069687515 0  
0.22284219 0.6692463 0  
0.9308683 0.2891792 0  
0.930985 0.8368545 0  
0.57183284 0.395735 0  
0.56719327 0.267426 0  
0.8295321 0.2563277 0  
0.702163 0.41558313 0  
0.6631986 0.48596716 0  
0.5332523 0.7285968 0  
0.9389338 0.15767792 0  
0.9392354 0.06812419 0  
0.74606097 0.5461627 0  
0.668234 0.16889203 0  
0.82325417 0.7682245 0  
0.86888987 0.49205798 0  
0.9373707 0.42941386 0  
0.27492446 0.5574591 0  
0.7591465 0.66997904 0  
0.5625162 0.14507365 0  
0.698026 0.84136397 0  
0.33979788 0.7690552 0  
0.4100188 0.5701878 0  
0.86549294 0.1689855 0  
0.15718786 0.7919015 0  
0.14695793 0.56156343 0  
0.49887148 0.9348564 0  
0.39005366 0.9400572 0  
0.2756479 0.94468254 0  
0.79987353 0.31934652 0  
0.79108334 0.48730215 0  
0.7893297 0.13692713 0  
0.8729007 0.040251754 0  
0.65027624 0.3686311 0  
0.94156647 0.94156647 0  
0.77622527 0.94636667 0  
0.6486954 0.7048788 0  
0.5761476 0.67128414 0  
0.77190053 0.83744544 0  
0.60624254 0.5986166 0  
0.7550012 0.06245598 0  
0.50134873 0.8411101 0  
0.68467325 0.64302444 0  
0.053087775 0.72582155 0  
0.139265 0.9408418 0  
0.95088 0.7243738 0  
0.9432815 0.5566516 0  
0.86394966 0.9434744 0  
0.6805639 0.11338498 0  
0.20661557 0.866214 0  
0.5136965 0.55900043 0  
0.61441326 0.79211885 0  
0.5533345 0.9442417 0  
0.86748934 0.5476702 0  
0.45131102 0.7447211 0  
0.9522712 0.6298776 0  
0.49115333 0.6454875 0  
0.57800794 0.87019897 0  
0.14164469 0.70855445 0  
0.38005453 0.7027296 0  
0.27368295 0.69533986 0  
0.049783085 0.62717026 0  
0.049414515 0.87215096 0  
0.62649876 0.043947894 0  
0.8786532 0.85014766 0  
0.34885973 0.6374005 0  
0.5949198 0.5178657 0  
0.86131465 0.63502216 0  
0.79260343 0.80256337 0  
0.7014114 0.5166631 0  
0.40068594 0.814811 0  
0.55082065 0.3157755 0  
0.6816506 0.59935296 0  
0.3207115 0.869895 0  
0.05274013 0.55274016 0  
0.05274013 0.94725984 0  
0.6400825 0.29462123 0  
0.70826656 0.24477807 0  
0.7619463 0.22610597 0  
0.052983053 0.7814943 0  
0.7439376 0.3234126 0  
0.95078784 0.88415176 0  
0.9592077 0.22841401 0  
0.84777594 0.1277937 0  
0.9565159 0.32835326 0  
0.87450755 0.38491434 0  
0.8723333 0.26038516 0  
0.2202579 0.9566307 0  
0.5511588 0.44135624 0  
0.89094824 0.71469563 0  
0.14088513 0.8952839 0  
0.9426072 0.110777475 0  
0.5598569 0.76635987 0  
0.7797588 0.58802515 0  
0.73662144 0.7500704 0  
0.80291736 0.6806566 0  
0.3250526 0.545103 0  
0.47699997 0.87967384 0  
0.109880045 0.6315259 0  
0.9565706 0.4731244 0  
0.9520049 0.7877815 0  
0.41847795 0.61317724 0  
0.7469016 0.43319932 0  
0.6651573 0.8785795 0  
0.6980314 0.36945662 0  
0.22855084 0.7651636 0  
0.5426688 0.22467211 0  
0.85128033 0.20839585 0  
0.6080812 0.24411796 0  
0.22691919 0.54427826 0  
0.42439926 0.70143026 0  
0.87087065 0.7973803 0  
0.71672744 0.95107883 0  
0.83949435 0.5922577 0  
0.34957552 0.8123493 0  
0.51278394 0.6086165 0  
0.15431206 0.6098422 0  
0.6343587 0.9556687 0  
0.8392547 0.8737899 0  
0.7109742 0.042080052 0  
0.23100297 0.62427217 0  
0.5484106 0.51544434 0  
0.42224586 0.8707757 0  
0.10496536 0.8650706 0  
0.11225842 0.7941315 0  
0.429402 0.95576584 0  
0.46295157 0.54450357 0  
0.10164671 0.5457688 0  
0.5822864 0.63314605 0  
0.37762833 0.53745234 0  
0.8275239 0.04005421 0  
0.8323437 0.41491747 0  
0.44464156 0.7891728 0  
0.90912354 0.4597161 0  
0.26412204 0.8401569 0  
0.26712763 0.7957094 0  
0.62024623 0.47111306 0  
0.7770051 0.8863074 0  
0.8221126 0.9602037 0  
0.5225849 0.68752897 0  
0.76535124 0.17708147 0  
0.31416538 0.59776855 0  
0.53816175 0.1840494 0  
0.6130816 0.16364412 0  
0.7091263 0.2886451 0  
0.22773811 0.71831167 0  
0.9012153 0.33257928 0  
0.18447237 0.53813106 0  
0.18472914 0.6879896 0  
0.82954866 0.46472684 0  
0.17961553 0.9633957 0  
0.36685705 0.9008585 0  
0.44457012 0.65111244 0  
0.8385268 0.7209097 0  
0.7115207 0.14475605 0  
0.09503517 0.95690435 0  
0.7880896 0.39571288 0  
0.96492094 0.38520482 0  
0.5563232 0.6018296 0  
0.31393582 0.73382735 0  
0.49519077 0.7332941 0  
0.9629974 0.5187325 0  
0.5415193 0.100338124 0  
0.9036664 0.6412981 0  
0.3244769 0.96671104 0  
0.2306904 0.9144942 0  
0.035453074 0.6754281 0  
0.035497267 0.82603335 0  
0.18655832 0.81865835 0  
0.54264426 0.042344484 0  
0.70526683 0.56849337 0  
0.5891552 0.9625355 0  
0.09987184 0.7080552 0  
0.6646015 0.4450029 0  
0.62016 0.87781084 0  
0.68724763 0.7468739 0  
0.6794575 0.21179324 0  
0.66522187 0.8161647 0  
0.5348051 0.47726545 0  
0.77173877 0.09966874 0  
0.30060795 0.6489708 0  
0.5900102 0.4408019 0  
0.6355171 0.20569986 0  
0.19041659 0.6358006 0  
0.7817328 0.35663295 0  
0.85770756 0.080021024 0  
0.90471005 0.95934963 0  
0.53831446 0.36966592 0  
0.24070142 0.5850949 0  
0.63882816 0.744377 0  
0.6058876 0.3669202 0  
0.9048971 0.4124307 0  
0.5905425 0.11210937 0  
0.6993429 0.7882209 0  
0.5656613 0.9052634 0  
0.7704826 0.63249016 0  
0.8522724 0.33958897 0  
0.296919 0.9075354 0  
0.9667555 0.83175755 0  
0.5987462 0.28922248 0  
0.11813834 0.6749375 0  
0.38161784 0.6131642 0  
0.6618531 0.40398476 0  
0.6370484 0.08659111 0  
0.038074076 0.5894313 0  
0.038074076 0.9105687 0  
0.96839094 0.6753669 0  
0.14384495 0.75045496 0  
0.5411818 0.84978336 0  
0.52673554 0.8019128 0  
0.7657028 0.46494102 0  
0.961649 0.03835645 0  
0.675 0.030283678 0  
0.7518289 0.70853835 0  
0.96001375 0.18740793 0  
0.9678583 0.27471802 0  
0.67516285 0.9681792 0  
0.59831095 0.83401567 0  
0.9073243 0.5525552 0  
0.8611736 0.90393615 0  
0.5795172 0.033180732 0  
0.5208923 0.96885955 0  
0.47072348 0.967185 0  
0.6462471 0.6071309 0  
0.52937275 0.275 0  
0.26006237 0.6504962 0  
0.73740774 0.8595233 0  
0.8331797 0.2957258 0  
0.47728643 0.80960673 0  
0.9208824 0.037562877 0  
0.9040851 0.18120942 0  
0.70257896 0.8997159 0  
0.97050655 0.074435726 0  
0.36017016 0.7398202 0  
0.7106061 0.0794504 0  
0.63714504 0.33196637 0  
0.890113 0.67338765 0  
0.17423429 0.88494647 0  
0.70125586 0.4576201 0  
0.9066001 0.8085411 0  
0.71885514 0.6719225 0  
0.36035147 0.9661565 0  
0.42251006 0.5290217 0  
0.9723008 0.4259288 0  
0.64294964 0.51980066 0  
0.78817964 0.03501066 0  
0.570402 0.7144006 0  
0.12055232 0.8290842 0  
0.19649777 0.7861254 0  
0.67484623 0.27905807 0  
0.36568695 0.6714864 0  
0.97151566 0.9645467 0  
0.8305832 0.16528471 0  
0.7877058 0.2744767 0  
0.4071035 0.9074601 0  
0.8660333 0.7541822 0  
0.75281197 0.5088334 0  
0.80377316 0.22890417 0  
0.7842619 0.53388166 0  
0.80658257 0.8577738 0  
0.8967399 0.28827333 0  
0.82637364 0.5137572 0  
0.9234294 0.25649244 0  
0.30519488 0.78316474 0  
0.8318979 0.6562427 0  
0.121106885 0.5892234 0  
0.97378284 0.925 0  
0.903588 0.07469306 0  
0.5322612 0.41135144 0  
0.63939583 0.91243213 0  
0.6109627 0.7054028 0  
0.57147133 0.35136378 0  
0.6785297 0.6806924 0  
0.90144104 0.14535177 0  
0.7748313 0.76722825 0  
0.7498974 0.14247963 0  
0.61986715 0.56109023 0  
0.36870277 0.77900666 0  
0.9640754 0.59000534 0  
0.9105131 0.86591715 0  
0.027604798 0.5276048 0  
0.027604798 0.9723952 0  
0.5214134 0.7612175 0  
CELLS 792 3168 
3 407 234 112 
3 413 222 86 
3 183 234 407 
3 108 278 233 
3 97 158 344 
3 124 207 169 
[...]
POINT_DATA 437 
SCALARS T float 
LOOKUP_TABLE default 
0.5000000000012899 
0.5000000000016751 
6.408584158933412e-18 
1.8957720075919987e-13 
2.7310610043617915e-15 
1.0269605871153302e-11 
0.9999999999996504 
1.0000000000000078 
1.0000000000000027 
0.9999999999999991 
0.999999999999993 
0.9999999999999931 
1.0000000000000153 
1.0000000000000302 
0.9999999999995309 
4.592379081703159e-12 
2.3092816627881187e-12 
9.852757633268205e-13 
7.076114884369224e-13 
3.626987180183897e-13 
1.305110002051053e-13 
6.180250438610748e-14 
3.703353379821725e-14 
-1.4183001666652196e-14 
9.083062557525072e-15 
-3.164002010695187e-14 
-7.030504031927639e-15 
-2.2594762420858966e-15 
1.9988482912811304e-16 
8.126686759538684e-16 
2.8176612782685475e-16 
1.6710476789968675e-16 
5.54924386521231e-17 
-2.541523021665458e-17 
-6.990837458848278e-17 
-1.594729220580388e-17 
-5.699260853108059e-16 
1.845984795709541e-15 
8.477354370988987e-15 
4.771114663426404e-14 
1.4146368083467555e-13 
3.1296842208064286e-13 
6.106983250184606e-13 
8.839485724040017e-13 
1.2233501898214835e-12 
1.5361413684506805e-12 
1.354730625309079e-12 
1.6122465417900684e-12 
1.0801657000612542e-12 
7.927009141800672e-13 
7.756953011801177e-13 
2.2541462982497124e-13 
1.8331348490893092e-13 
8.580484917410678e-13 
1.2123960568805514e-12 
1.3970907248207204e-12 
1.34506569431788e-12 
1.0944334656562116e-12 
6.75265776877245e-13 
3.2067949169800165e-13 
9.947253975117426e-14 
2.4646876477641232e-14 
3.7935512062853775e-16 
2.573105525199288e-15 
-5.332699113676179e-16 
3.812078757262442e-15 
-1.9958983932978885e-15 
-1.1025532760072289e-14 
-7.148896870030087e-15 
1.4707062727596052e-14 
-1.8997771315184804e-13 
1.1169649553448997e-11 
8.965242355362223e-12 
7.533520940106336e-12 
6.634797697871853e-12 
5.15664005847981e-12 
4.213590239612065e-12 
4.173467717843133e-12 
3.0990167193753847e-12 
4.5769158820069116e-12 
0.3272368655621078 
0.9853961693886568 
0.5557273098939101 
0.6525270149073149 
1.0007576502822702 
0.3684224655135475 
0.002444250003994 
0.8865313371323472 
0.994898322882045 
0.7435836750856353 
0.1436448309942564 
0.09270953856024351 
0.24755664097901772 
0.47641916222621616 
0.03679410804985317 
0.9265778765894126 
0.8069150540628784 
1.001967532362387 
0.4398213480612355 
0.9968178158947366 
0.1374539625257208 
0.34498459340119253 
0.216496538565436 
1.0074921214176364 
0.5324028097593951 
1.0002108621613799 
0.006659802542614339 
0.9018696996570776 
0.14324929186436555 
0.9727135067138936 
0.7822527608214885 
2.066359695261991e-5 
1.000308333238616 
0.030830482189242805 
0.5389133749607188 
0.8268910490683122 
0.0007430790077032336 
0.06090832244333974 
0.7431252535313246 
0.7789050963177401 
0.009485184263627206 
0.09772208888466538 
0.23302310292489573 
1.007654201266808 
0.08272071268968244 
0.3028355072142177 
0.9748700648697505 
0.1533147159294497 
0.8932716589454767 
0.0004249925440746008 
0.02663652252549473 
0.9994662887454298 
1.0009042545106575 
0.9972443824004941 
0.2787513493485338 
0.0853743259473442 
0.204307263513659 
0.06353309297654164 
0.05085959233832732 
0.1197499037733864 
0.6326068502632102 
0.42267123553465985 
0.27444805861030613 
0.36551615920358 
0.8173469660258862 
0.9430681249052857 
0.549599883774798 
0.20357495542787266 
0.2505929497502831 
0.5093532071820598 
0.9975865940744088 
0.003077091119057823 
0.8706324339418505 
0.016316662683469624 
0.9993084928335264 
0.2272358163074307 
0.45035317746026055 
-2.273333707310177e-5 
0.9465136594257332 
0.9078805815440152 
0.9867127249909265 
0.9908262086915645 
0.9684241798307998 
0.7311257347599782 
0.7515043682057391 
0.9551650845182313 
0.712196389665461 
1.0013030353563133 
0.014958381823742385 
0.3020841350686303 
0.11754831554559916 
0.01784518984125859 
0.2698693245284889 
0.9486633976211669 
0.06576525381829458 
0.6945069458180319 
0.2350406590483083 
0.9856391265927441 
0.27771184114410724 
0.006543105109938312 
0.14799266097812805 
0.25701159988376554 
0.25104114175174475 
0.9820798541131458 
0.7037573844067048 
1.0002262522875247 
0.9946234114265623 
0.9981908179395392 
-2.0650583801773004e-5 
0.0002589514690555841 
0.5235807622174211 
0.8121926584769186 
0.015107556351260442 
0.9124443178234907 
1.0011301703084095 
0.41200346737348686 
0.6171897798399882 
0.09412027287826888 
0.14528677026039177 
7.682395302473218e-5 
0.01655459820098687 
-0.0001034899576936131 
1.000682450453554 
0.3136284374559636 
0.9706355223279418 
0.32876522682019943 
0.08192278813716347 
0.17685649970493314 
0.7929782257899106 
0.0021120012311600855 
0.9592652185407723 
0.18810286213597247 
0.1720222515156169 
0.7903107593312285 
0.4478868484822791 
0.020659689005320156 
0.11744725243173049 
0.9989348926288745 
0.00015234846135667927 
0.44072768716935595 
0.9372549596890067 
0.0656595187228874 
0.01781493948932518 
0.8975369197847626 
0.6148001533857281 
1.0928609309528854 
0.7614807986306462 
0.4425012716784241 
0.0022063106705754003 
0.06546435566215084 
1.006273375651245 
1.0016598552368967 
1.0005880750582314 
0.1263996538158293 
1.0003842061799726 
-2.7215543019612792e-5 
0.33438894784000367 
1.008115295160203 
0.16834215434487976 
0.5843015454726421 
0.8981263944086598 
0.18360687273160511 
1.167298188663916 
0.004464592737459775 
0.18462898274603282 
0.8487812910416058 
0.5548107419886165 
0.43626727646379887 
0.14046889360880732 
0.12096919926102666 
0.02146880753860077 
0.32166240093288573 
0.03778450585959836 
0.029726905638510874 
-0.00010369034750086172 
0.6237444812509707 
0.941101980444673 
0.057211525082123765 
0.999582294524818 
0.44116397959289083 
0.8612289189704898 
0.9981362928316159 
1.0159202945689911 
0.007249122364031888 
0.8687954922689516 
0.0012394238143769959 
0.003915166568472566 
0.18393163420911748 
0.6132979061853518 
0.9934671133642755 
0.03685547062027899 
0.023204744468077052 
0.00044830080541096584 
1.000146106536037 
0.11092571820998978 
1.1880517593582312 
0.41767203801035746 
0.1537674882231411 
0.18718286654846084 
0.1992964021455343 
0.2761658203705359 
0.0022428263546993353 
0.8823896919493792 
0.035758877780407795 
1.0011663022242356 
0.72342960666499 
0.6699592897578579 
0.18285479842277863 
0.4514675660937836 
0.5276901611848641 
1.0199260470912233 
0.003460516233921828 
0.00010952766963918531 
0.8569341059866562 
1.0001366054676124 
0.13959466315933924 
0.7239296679536367 
0.9954051671646589 
1.000091015194311 
0.3746865645330719 
0.5548122054637532 
0.0035492287516096757 
0.20325083410768394 
0.5931979916320735 
0.1352875039968268 
0.344878242000204 
0.8799984115481032 
0.027034697369121896 
1.0004519145637119 
0.0766163680136318 
0.9185982048144208 
0.07080194810663948 
0.9657216570665133 
0.6505887755420627 
0.7771792372689842 
0.006469769175965715 
0.8060516777979135 
0.014455989135871686 
0.20555479315358358 
0.2628050493975557 
0.044644306746778877 
0.11884730429671343 
0.33359231318962385 
0.8685341394988975 
0.7774643994102999 
0.04997239472552694 
0.10522383378829155 
0.9863936063878871 
0.10697214908873263 
0.27168473601043513 
1.001525469415663 
0.147485367049349 
1.2089841432229884 
0.9992485833075708 
0.34084780811367044 
0.9827522267625037 
0.9935438997387388 
0.09549227515207089 
0.968810540707411 
0.9962153244147586 
-1.550875000303092e-6 
1.0711671305004322 
0.04541347118832428 
0.4202522812979525 
1.004687098418403 
0.31150528248202924 
0.977650401935144 
0.14467105069774672 
0.1289492235261421 
0.3315844426824364 
0.8271256897402169 
0.3166924463262684 
-2.5105298402481955e-5 
0.9589970628132712 
0.09181840551565078 
0.4294098759423434 
0.9997049049860913 
1.003545388358983 
0.007076617870393335 
0.0933693866814216 
0.00032029198202051775 
0.2321128811580737 
0.30979320038701746 
0.49944826581689217 
0.8449095427597068 
0.9166141962986795 
1.000237239519605 
0.19229365968763043 
0.4409846029285661 
0.1788907328588229 
0.008273194217366327 
0.24171287530730398 
0.0640151454971308 
1.0007477029108381e-5 
0.9966856534795956 
0.07956898553031336 
0.12301246241377939 
0.8327614189584418 
0.7699245380494344 
0.24269172039336354 
0.02187987873020941 
0.9536940556761807 
0.5589612507657381 
0.9977118406019274 
0.9266691856059365 
0.01906690739104491 
0.6197564325997857 
0.7531785662182033 
1.000025138635054 
0.9972657105162931 
0.013922947969264918 
0.2378810483455442 
0.9729614059184325 
0.0002820726165224081 
0.4034318656313965 
0.18789634464364202 
0.06332918588878378 
0.029503979588153127 
0.98192640036406 
1.0012107510091333 
0.7035103106677141 
0.2049761371504129 
0.36525172406684847 
0.9974398331316808 
0.6721466898533769 
4.502770240413687e-6 
1.0014459783509926 
0.998279979184648 
0.29571953867852696 
0.006031760445839586 
0.7893321221172265 
1.0012507102811756 
0.5892792574002508 
0.0033884819714505433 
0.7001851154930897 
0.4544487156196582 
0.6024437267292421 
0.6174267579831031 
0.10156090284848487 
0.014728876798223562 
7.916153899993627e-7 
1.0185046980101056 
1.1361669228235594 
0.04786113583521038 
0.6336356886531037 
1.0242655850626392 
0.513165800608537 
0.9615656756559672 
0.059545346951186025 
1.0000815665370795 
0.9370013442230541 
0.706204547811728 
0.001672020470722497 
-3.354435344714055e-5 
0.0007775844718108795 
0.033932603166463814 
0.6501315560738012 
