# vtk DataFile Version 3.0 
Unstructured Grid 
ASCII 
DATASET UNSTRUCTURED_GRID
POINTS 2173 float 
-0.5 -0.5 0  
0.5 -0.5 0  
0.5 0.5 0  
-0.5 0.5 0  
-0.475 -0.5 0  
-0.45 -0.5 0  
-0.425 -0.5 0  
-0.4 -0.5 0  
-0.375 -0.5 0  
-0.35 -0.5 0  
-0.325 -0.5 0  
-0.3 -0.5 0  
-0.275 -0.5 0  
-0.25 -0.5 0  
-0.225 -0.5 0  
-0.2 -0.5 0  
-0.175 -0.5 0  
-0.15 -0.5 0  
-0.125 -0.5 0  
-0.1 -0.5 0  
-0.075 -0.5 0  
-0.05 -0.5 0  
-0.025 -0.5 0  
-1.3761214e-12 -0.5 0  
0.025 -0.5 0  
0.05 -0.5 0  
0.075 -0.5 0  
0.1 -0.5 0  
0.125 -0.5 0  
0.15 -0.5 0  
0.175 -0.5 0  
0.2 -0.5 0  
0.225 -0.5 0  
0.25 -0.5 0  
0.275 -0.5 0  
0.3 -0.5 0  
0.325 -0.5 0  
0.35 -0.5 0  
0.375 -0.5 0  
0.4 -0.5 0  
0.425 -0.5 0  
0.45 -0.5 0  
0.475 -0.5 0  
0.5 -0.475 0  
0.5 -0.45 0  
0.5 -0.425 0  
0.5 -0.4 0  
0.5 -0.375 0  
0.5 -0.35 0  
0.5 -0.325 0  
0.5 -0.3 0  
0.5 -0.275 0  
0.5 -0.25 0  
0.5 -0.225 0  
0.5 -0.2 0  
0.5 -0.175 0  
0.5 -0.15 0  
0.5 -0.125 0  
0.5 -0.1 0  
0.5 -0.075 0  
0.5 -0.05 0  
0.5 -0.025 0  
0.5 -1.3761214e-12 0  
0.5 0.025 0  
0.5 0.05 0  
0.5 0.075 0  
0.5 0.1 0  
0.5 0.125 0  
0.5 0.15 0  
0.5 0.175 0  
0.5 0.2 0  
0.5 0.225 0  
0.5 0.25 0  
0.5 0.275 0  
0.5 0.3 0  
0.5 0.325 0  
0.5 0.35 0  
0.5 0.375 0  
0.5 0.4 0  
0.5 0.425 0  
0.5 0.45 0  
0.5 0.475 0  
0.475 0.5 0  
0.45 0.5 0  
0.425 0.5 0  
0.4 0.5 0  
0.375 0.5 0  
0.35 0.5 0  
0.325 0.5 0  
0.3 0.5 0  
0.275 0.5 0  
0.25 0.5 0  
0.225 0.5 0  
0.2 0.5 0  
0.175 0.5 0  
0.15 0.5 0  
0.125 0.5 0  
0.1 0.5 0  
0.075 0.5 0  
0.05 0.5 0  
0.025 0.5 0  
1.3761214e-12 0.5 0  
-0.025 0.5 0  
-0.05 0.5 0  
-0.075 0.5 0  
-0.1 0.5 0  
-0.125 0.5 0  
-0.15 0.5 0  
-0.175 0.5 0  
-0.2 0.5 0  
-0.225 0.5 0  
-0.25 0.5 0  
-0.275 0.5 0  
-0.3 0.5 0  
-0.325 0.5 0  
-0.35 0.5 0  
-0.375 0.5 0  
-0.4 0.5 0  
-0.425 0.5 0  
-0.45 0.5 0  
-0.475 0.5 0  
-0.5 0.475 0  
-0.5 0.45 0  
-0.5 0.425 0  
-0.5 0.4 0  
-0.5 0.375 0  
-0.5 0.35 0  
-0.5 0.325 0  
-0.5 0.3 0  
-0.5 0.275 0  
-0.5 0.25 0  
-0.5 0.225 0  
-0.5 0.2 0  
-0.5 0.175 0  
-0.5 0.15 0  
-0.5 0.125 0  
-0.5 0.1 0  
-0.5 0.075 0  
-0.5 0.05 0  
-0.5 0.025 0  
-0.5 1.3761214e-12 0  
-0.5 -0.025 0  
-0.5 -0.05 0  
-0.5 -0.075 0  
-0.5 -0.1 0  
-0.5 -0.125 0  
-0.5 -0.15 0  
-0.5 -0.175 0  
-0.5 -0.2 0  
-0.5 -0.225 0  
-0.5 -0.25 0  
-0.5 -0.275 0  
-0.5 -0.3 0  
-0.5 -0.325 0  
-0.5 -0.35 0  
-0.5 -0.375 0  
-0.5 -0.4 0  
-0.5 -0.425 0  
-0.5 -0.45 0  
-0.5 -0.475 0  
-0.002115384 -0.00023065208 0  
-0.20714286 -0.20714286 0  
0.20714286 -0.20714286 0  
0.20714286 0.20714286 0  
-0.20714286 0.20714286 0  
-0.28155318 -0.0017231192 0  
0.0017231192 -0.28155318 0  
0.28155318 0.0017231192 0  
-0.0017231192 0.28155318 0  
0.3319978 -0.33098683 0  
0.33098683 0.3319978 0  
-0.3319978 0.33098683 0  
-0.33098683 -0.3319978 0  
-0.14015679 -0.06698606 0  
0.06698606 -0.14015679 0  
0.14015679 0.06698606 0  
-0.06698606 0.14015679 0  
-0.1387125 -0.34573975 0  
0.34573975 -0.1387125 0  
0.1387125 0.34573975 0  
-0.34573975 0.1387125 0  
0.14046866 -0.34602854 0  
0.34602854 0.14046866 0  
-0.14046866 0.34602854 0  
-0.34602854 -0.14046866 0  
-0.05869875 -0.16617337 0  
0.18217777 -0.061504476 0  
0.062312964 0.18362015 0  
-0.18362015 0.062312964 0  
-0.034321424 -0.38563195 0  
0.38563195 -0.034321424 0  
0.034321424 0.38563195 0  
-0.38563195 0.034321424 0  
0.39586002 -0.2428538 0  
0.2428538 0.39586002 0  
-0.39586002 0.2428538 0  
-0.2428538 -0.39586002 0  
0.23688246 -0.38952246 0  
0.38952246 0.23688246 0  
-0.23688246 0.38952246 0  
-0.38952246 -0.23688246 0  
-0.24287231 -0.09948847 0  
0.09948847 -0.24287231 0  
0.24287231 0.09948847 0  
-0.09948847 0.24287231 0  
-0.11560815 -0.24300627 0  
0.24300627 -0.11560815 0  
0.11560815 0.24300627 0  
-0.24300627 0.11560815 0  
-0.40192315 -0.4008276 0  
0.4008276 -0.40192315 0  
0.40192315 0.4008276 0  
-0.4008276 0.40192315 0  
0.06409326 -0.40289903 0  
0.40289903 0.06409326 0  
-0.06409326 0.40289903 0  
-0.40289903 -0.06409326 0  
0.2962961 -0.23982804 0  
0.23982804 0.2962961 0  
-0.2962961 0.23982804 0  
-0.23982804 -0.2962961 0  
-0.28087237 -0.21196799 0  
0.21196799 -0.28087237 0  
0.28087237 0.21196799 0  
-0.21196799 0.28087237 0  
-0.0901279 0.007867504 0  
-0.05002927 -0.07494272 0  
0.0873353 -0.009871756 0  
0.0071518295 0.09216282 0  
-0.14120433 -0.1484696 0  
-0.14581114 0.13960092 0  
0.1458264 -0.14505939 0  
0.13960092 0.14581114 0  
0.41838804 -0.3182741 0  
0.3182741 0.41838804 0  
-0.41838804 0.3182741 0  
-0.3182741 -0.41838804 0  
0.32118136 -0.41712493 0  
0.41712493 0.32118136 0  
-0.32118136 0.41712493 0  
-0.41712493 -0.32118136 0  
-0.19707234 -0.014843048 0  
0.018050108 -0.20183705 0  
0.19707234 0.014843048 0  
-0.014843048 0.19707234 0  
-0.10938372 -0.41847488 0  
0.41847488 -0.10938372 0  
0.10938372 0.41847488 0  
-0.41847488 0.10938372 0  
0.15773043 -0.4267032 0  
0.4267032 0.15773043 0  
-0.15773043 0.4267032 0  
-0.4267032 -0.15773043 0  
-0.3204562 -0.07174808 0  
0.07174808 -0.3204562 0  
0.3204562 0.07174808 0  
-0.07174808 0.3204562 0  
0.02801032 -0.07269879 0  
-0.31817523 0.069836795 0  
-0.069836795 -0.31817523 0  
0.31817523 -0.069836795 0  
0.069836795 0.31817523 0  
0.43106207 -0.17757268 0  
0.17757268 0.43106207 0  
-0.43106207 0.17757268 0  
-0.17757268 -0.43106207 0  
0.0703783 0.071201205 0  
-0.051593844 0.064346604 0  
0.099701226 -0.08333426 0  
0.2863281 -0.17248559 0  
0.17248559 0.2863281 0  
-0.2863281 0.17248559 0  
-0.17248559 -0.2863281 0  
-0.2341888 0.04979648 0  
-0.049194112 -0.231281 0  
0.23358595 -0.04946041 0  
0.04979648 0.2341888 0  
-0.009939441 -0.13691185 0  
-0.26560438 -0.17864102 0  
0.17864102 -0.26560438 0  
0.26560438 0.17864102 0  
-0.17864102 0.26560438 0  
0.013302229 -0.43510666 0  
0.43510666 0.013302229 0  
-0.013302229 0.43510666 0  
-0.43510666 -0.013302229 0  
0.09432827 0.114700764 0  
-0.11539384 0.093188405 0  
-0.3413634 -0.005100272 0  
0.005100272 -0.3413634 0  
0.3413634 0.005100272 0  
-0.005100272 0.3413634 0  
-0.19817708 -0.3508856 0  
0.3508856 -0.19817708 0  
0.19817708 0.3508856 0  
-0.3508856 0.19817708 0  
-0.34100306 -0.27216324 0  
0.27216324 -0.34100306 0  
0.34100306 0.27216324 0  
-0.27216324 0.34100306 0  
-0.20269383 -0.14403741 0  
0.14393912 -0.2028372 0  
0.2026342 0.14393856 0  
-0.14393856 0.2026342 0  
-0.1030633 -0.10524017 0  
-0.4394695 -0.104853734 0  
0.104853734 -0.4394695 0  
0.4394695 0.104853734 0  
-0.104853734 0.4394695 0  
-0.44156647 -0.44156647 0  
0.44156647 -0.44156647 0  
0.44156647 0.44156647 0  
-0.44156647 0.44156647 0  
-0.2683254 -0.44465622 0  
0.44465622 -0.2683254 0  
0.2683254 0.44465622 0  
-0.44465622 0.2683254 0  
0.2654342 -0.4435478 0  
0.4435478 0.2654342 0  
-0.2654342 0.4435478 0  
-0.4435478 -0.2654342 0  
-0.27373606 -0.34534052 0  
0.34534052 -0.27373606 0  
0.27373606 0.34534052 0  
-0.34534052 0.27373606 0  
-0.05307205 -0.4481981 0  
0.4481981 -0.05307205 0  
0.05307205 0.4481981 0  
-0.4481981 0.05307205 0  
-0.35614902 -0.19390328 0  
0.19390328 -0.35614902 0  
0.35614902 0.19390328 0  
-0.19390328 0.35614902 0  
-0.14022674 -0.012452113 0  
0.14171903 0.011271359 0  
-0.01125192 0.14089845 0  
-0.19556868 -0.06932378 0  
0.070511825 -0.19668652 0  
0.19556868 0.06932378 0  
-0.06932378 0.19556868 0  
-0.24951252 -0.039742906 0  
0.04037078 -0.2503529 0  
0.24951252 0.039742906 0  
-0.039742906 0.24951252 0  
0.44100407 -0.36164257 0  
0.36164257 0.44100407 0  
-0.44100407 0.36164257 0  
-0.36164257 -0.44100407 0  
-0.4451273 -0.36589316 0  
0.36589316 -0.4451273 0  
0.4451273 0.36589316 0  
-0.36589316 0.4451273 0  
0.1121834 -0.30242515 0  
0.30242515 0.1121834 0  
-0.1121834 0.30242515 0  
-0.30242515 -0.1121834 0  
-0.115146436 -0.19087775 0  
0.19190264 -0.11309679 0  
0.11520548 0.19263776 0  
-0.19263776 0.11520548 0  
-0.08287991 -0.37025127 0  
0.37025127 -0.08287991 0  
0.08287991 0.37025127 0  
-0.37025127 0.08287991 0  
0.23791528 -0.24381089 0  
0.24381089 0.23791528 0  
-0.23791528 0.24381089 0  
-0.24381089 -0.23791528 0  
-0.44626984 -0.21174923 0  
0.21174923 -0.44626984 0  
0.44626984 0.21174923 0  
-0.21174923 0.44626984 0  
0.35174853 -0.37705234 0  
0.37705234 0.35174853 0  
-0.35174853 0.37705234 0  
-0.37705234 -0.35174853 0  
-0.048605647 -0.023262763 0  
-0.1551113 -0.21381997 0  
0.21381997 -0.1551113 0  
0.1551113 0.21381997 0  
-0.21381997 0.1551113 0  
-0.29403278 -0.30027482 0  
0.30027482 -0.29403278 0  
0.29403278 0.30027482 0  
-0.30027482 0.29403278 0  
0.12173745 -0.390654 0  
0.390654 0.12173745 0  
-0.12173745 0.390654 0  
-0.390654 -0.12173745 0  
-0.12236246 -0.2979882 0  
0.2979882 -0.12236246 0  
0.12236246 0.2979882 0  
-0.2979882 0.12236246 0  
-0.0945969 -0.046371013 0  
0.035276897 -0.027358124 0  
-0.0076714605 0.051946 0  
-0.30809116 -0.17165439 0  
0.17165439 -0.30809116 0  
0.30809116 0.17165439 0  
-0.17165439 0.30809116 0  
-0.16592422 -0.10879113 0  
0.10700909 -0.1687818 0  
0.16864619 0.10664837 0  
-0.10664837 0.16864619 0  
-0.16784625 -0.38069874 0  
0.38069874 -0.16784625 0  
0.16784625 0.38069874 0  
-0.38069874 0.16784625 0  
-0.4563872 -0.05993889 0  
0.05993889 -0.4563872 0  
0.4563872 0.05993889 0  
-0.05993889 0.4563872 0  
0.31103167 -0.37412483 0  
0.37412483 0.31103167 0  
-0.31103167 0.37412483 0  
-0.37412483 -0.31103167 0  
-0.3909646 -0.012754724 0  
0.012754724 -0.3909646 0  
0.3909646 0.012754724 0  
-0.012754724 0.3909646 0  
0.44915667 -0.21679194 0  
0.21679194 0.44915667 0  
-0.44915667 0.21679194 0  
-0.21679194 -0.44915667 0  
0.045831423 0.12033131 0  
-0.12662303 0.045442794 0  
-0.3107799 -0.37355793 0  
0.37355793 -0.3107799 0  
0.3107799 0.37355793 0  
-0.37355793 0.3107799 0  
0.04152367 0.021693805 0  
-0.08040017 -0.2675595 0  
0.26794365 -0.08044455 0  
0.080500565 0.2680441 0  
-0.2680441 0.080500565 0  
-0.13753757 -0.45578164 0  
0.45578164 -0.13753757 0  
0.13753757 0.45578164 0  
-0.45578164 0.13753757 0  
-0.05507968 -0.12135967 0  
0.14172421 -0.09428923 0  
0.2571752 -0.19664502 0  
[...]
POINT_DATA 2173 
SCALARS T float 
LOOKUP_TABLE default 
1.599305651597385e-17 
3.2672619345262475e-21 
9.92723298261143e-19 
-2.350711908431265e-18 
2.8943574175283326e-16 
-9.248378408672145e-17 
-1.1230015287793694e-16 
-1.61191246655558e-16 
-9.450992946941646e-18 
1.7276208982206413e-16 
1.1831320393565076e-15 
8.708896146708243e-16 
1.894537169335473e-15 
-5.797852320120926e-16 
1.971280131630415e-17 
-2.268418473125789e-16 
2.5444651097356984e-16 
1.546821391312335e-16 
-1.230696515259636e-16 
1.9833129357124143e-16 
-2.743782238955266e-16 
-4.638180786517202e-17 
2.7479717669399696e-16 
-5.316449621243418e-16 
4.632868865703618e-16 
-3.412478751692831e-16 
3.229698305007266e-17 
9.31563588692475e-19 
-2.9944813717111894e-18 
-1.2002858299577706e-17 
-1.4190916391122533e-18 
-1.6627120035832993e-18 
-7.51652053721301e-19 
-6.017653935369798e-20 
7.482444602287881e-20 
2.6202615126238703e-20 
2.3343075676116142e-20 
2.536205105835207e-20 
4.866365734528275e-21 
-5.968436143707964e-21 
-2.424312017020798e-22 
9.221886216770255e-21 
1.2195527576883446e-20 
-7.165430739707272e-21 
-3.658713082637262e-20 
9.071230999988718e-20 
-4.4199753059121786e-20 
-2.7316589877695083e-21 
-3.8663148786353806e-20 
-5.185436795331295e-20 
7.0438249547387575e-19 
-1.8464605733509723e-18 
2.6357286234887893e-18 
-2.6424254758435477e-18 
6.298931094151337e-19 
1.5153035303762035e-18 
-4.8293255981308986e-18 
9.125738421601624e-18 
-9.456066307654398e-18 
7.241081678387258e-18 
-3.27765682805226e-18 
-1.3669656342010153e-18 
-7.437742465220013e-19 
2.521097158844262e-18 
-4.31244126556351e-18 
5.195196606127522e-18 
-1.4706210206670733e-17 
9.41136461769054e-18 
-3.051636830769426e-18 
-6.653808819504882e-19 
6.797856221481531e-18 
-1.1827480930706861e-17 
9.058730001832467e-18 
-7.089989373758045e-18 
-2.0244104386138775e-17 
2.048379144023754e-18 
2.2515341060655275e-18 
-1.129061350246159e-18 
-5.161279149524265e-18 
-2.413584095118483e-18 
3.3725960195756443e-18 
6.493924851886216e-19 
1.7953566453404424e-18 
-9.091541948010001e-18 
2.6910065671151413e-17 
-1.6244077419496143e-17 
2.3498501206134573e-18 
-5.869787192195738e-18 
2.0067258809829842e-17 
3.71734424709197e-17 
-1.2329964038889045e-16 
1.712059619011224e-16 
-1.3137160573439056e-16 
4.4044122136851383e-17 
-8.804243294338447e-19 
3.2270580100748075e-17 
-3.227669613870554e-17 
5.152282498187935e-17 
-6.47082425983309e-17 
3.3710660346658455e-17 
3.522012635274179e-18 
3.827992759393264e-17 
-8.804290446432487e-17 
1.457265278074358e-16 
-1.6472496317383652e-16 
1.4750742247527947e-16 
-1.0163628108712949e-16 
-8.133519386531269e-17 
2.4094939081958754e-16 
-3.21982387918588e-16 
2.5031031585954483e-16 
4.8801128983151735e-17 
1.1578837032421747e-16 
1.5839553701764263e-16 
-5.152602259843766e-17 
-6.285361139943134e-17 
-2.5197530249602258e-16 
-2.134048530735239e-16 
-2.3028530818390358e-17 
-5.327082196508029e-17 
-5.215032371273433e-18 
-1.3992562796072225e-17 
-2.6987212441837336e-17 
-1.1392026316249516e-16 
1.4999474888779968e-16 
3.7764279540480693e-16 
4.518489772534848e-16 
5.185563490307516e-16 
2.2112282946221556e-16 
1.2806196213844076e-16 
3.338861368070662e-16 
-5.636688580837005e-16 
3.8028856090698905e-16 
-1.2776974801998664e-16 
-7.309075406062427e-17 
3.159693602869537e-16 
-3.9862810322537134e-16 
-1.2074526417845568e-16 
-2.65647970284318e-16 
7.748174384728111e-16 
-4.664974501862303e-16 
1.6915758844003526e-16 
3.2805945229830804e-16 
-1.646617657103986e-15 
3.1830815966159214e-15 
-8.242985736147354e-17 
1.7591338413630199e-15 
-3.136594180124919e-16 
8.331936677323029e-16 
-4.852431431336238e-18 
1.8445807268927963e-16 
9.183231523707273e-17 
1.982195928257493e-15 
2.151509868076186e-16 
5.878633485283174e-16 
7.539316998884998e-17 
-1.0029451655354285e-16 
4.165379740397457e-17 
-1.4698432417220956e-16 
-2.9841325639769725e-16 
2.03494448536644e-6 
-0.00029700936124969497 
-5.082020314830292e-6 
4.438984674677472e-5 
-0.00028207415586173026 
0.000737207238159668 
0.6209856435043626 
-5.533500063097457e-7 
-8.26276897638312e-5 
4.125310654327742e-8 
-5.206336531047203e-6 
6.662663198798906e-5 
-0.0002883318402429608 
0.003341681160817071 
0.014388413189520124 
2.2804388368041088e-6 
6.543454953030507e-5 
0.0031962438608357084 
7.653689356902207e-7 
9.835592316416037e-5 
-0.0002602450685215505 
0.00023681628946193672 
1.7669405203825025e-5 
-0.0003108490372081048 
-0.00029869907014246804 
0.12922831467893234 
-2.618251743232126e-7 
5.372030194775727e-6 
0.0006360548377830401 
0.012320360132362736 
-1.9255389807727807e-6 
2.0107112063211723e-5 
-8.152677421199647e-5 
-5.062054658850949e-7 
-2.699851309461208e-5 
-0.0006465350769513096 
-0.0011743607239741098 
1.4070876778491958e-6 
-8.196900799313579e-6 
-4.508762376486734e-5 
-0.000842317148197486 
0.0007944760739116392 
0.05126135176618312 
2.9600641612125326e-6 
0.0002244260938101238 
0.10763597763049616 
3.752484785940582e-7 
-1.4913691572200571e-5 
-0.0007143814809876004 
-0.00048431215371491274 
2.2301129429026056e-8 
1.1925210517574425e-5 
0.0001219129986724222 
0.00034102331734562203 
3.5808066722619523e-6 
3.593150109693336e-5 
-0.0007896918279442107 
2.093541042912881e-8 
2.5283790063885996e-5 
-0.00023157676616355498 
-0.00026888766556799383 
-0.0005594765693177261 
-1.6447663347197915e-5 
-6.923261945346063e-7 
-2.9830452321505833e-5 
-0.0009722257604339283 
0.0007371153502185627 
-1.1568416000782138e-6 
-4.118985530205412e-5 
0.004857541121411219 
-4.5193088147806267e-5 
7.727047279681794e-5 
2.138603581345342e-6 
7.347368568229512e-8 
1.708402668800965e-5 
-6.299820748606443e-6 
-0.001341477014873367 
5.1864844831391304e-8 
-8.135568078962556e-6 
0.00017290166161067433 
0.0015666620357971785 
-0.0006915799083204725 
0.39879888726168694 
1.1123663129603203e-6 
-6.438352356406778e-5 
-0.00023765804586465972 
-4.5142178232579927e-7 
-4.500165889592895e-5 
-0.0002615018908998293 
-3.934833549928408e-5 
-3.7154925637652914e-6 
0.0002282736636943201 
0.0006285508435819729 
-0.00028286268587969504 
0.05641312800615284 
1.6633178382767326e-5 
-0.00020982457744844502 
0.0004852482974243017 
0.00011761052327444457 
0.1758777384980839 
1.6909514030718006e-6 
1.976243707956471e-5 
-5.370984313192923e-7 
-3.144900731958765e-5 
-0.0006568788836198363 
-0.0011763489498605377 
1.5291596074420542e-5 
-0.0001699551232142958 
5.971598055087137e-5 
2.2925503182245875e-7 
1.771016924905684e-5 
-0.0007391618591864332 
0.007307719629547991 
0.0004457896506239101 
0.658511982662995 
4.042678639172209e-8 
-3.5449940663228163e-5 
0.055597830311910214 
0.003723592416400809 
0.00014141584407580043 
4.755669030568393e-6 
0.00010999885009065114 
-0.0007639826203529505 
-2.513852118342766e-6 
-4.643315454020393e-5 
-0.0001891537170948754 
-8.086426551483427e-6 
0.00019157102286469383 
0.00044287377464626265 
0.12178465241242038 
1.4155111584253942e-6 
1.3427125521638013e-5 
-0.0006600837860023112 
7.034291028695967e-7 
6.532910118080177e-5 
-0.00030502793213952174 
-0.0014085376500193138 
1.2325703561693086e-7 
9.550978846695518e-6 
-0.0001356652393579445 
0.0009830745374707843 
0.0023749303987671408 
-4.650692981190847e-6 
-0.0003639803230942548 
0.0002316361215871382 
0.0009148637127309765 
-4.5675408232982275e-5 
-4.089793287779789e-6 
6.628870146380664e-5 
-0.00024955122752433627 
-3.909517694612214e-8 
-6.1892717307119286e-6 
-1.14579503058767e-5 
-0.0009407026055288386 
-1.8734297347401514e-7 
-2.880804042431988e-5 
-0.00036171444048509676 
3.4360723893087214e-7 
5.532105682131719e-7 
3.0293879852777407e-5 
0.0006847319599090438 
-0.0009100750120003963 
1.660356026654931e-7 
3.060750801758614e-5 
-0.00024817044854863343 
0.00029254849069200635 
-1.693878082124219e-6 
-4.781677474874822e-6 
0.0005019628257130378 
0.002513473338128994 
-1.2729479677701598e-5 
-1.2889772600827366e-6 
0.00015183792709556003 
0.002191035836262208 
5.983720482827632e-7 
-0.00015654679041661473 
5.677006727464065e-5 
0.09272788398425752 
-3.8000813233770147e-6 
-4.1277160244550896e-5 
-0.0008298299118900621 
0.42654081011535766 
-8.372832195137882e-8 
-5.384154246433436e-5 
-2.053339108534592e-7 
-2.7002976306404922e-5 
0.00031008264744344525 
0.00046681952288543454 
7.403155848255013e-5 
-1.1542769136547308e-8 
-5.195609873400038e-6 
0.00017506655995914064 
0.013769945085462466 
-3.661425883333199e-6 
0.00014244933559718563 
0.0025295200507744527 
0.05716159856690138 
-1.2290003468375015e-6 
4.322467906439749e-5 
1.498394922298342e-5 
0.013613672856051478 
2.3794115648204154e-6 
7.88618698812008e-6 
-1.2107578890224666e-6 
-1.9817037945679763e-6 
-1.6874283323620768e-5 
1.4942511627705556e-5 
0.0005501644985092818 
0.00047954901810696695 
3.8426612131670323e-7 
-1.5689128990849254e-6 
-3.991474964576999e-5 
-5.1301830766263535e-8 
-9.493555248006944e-6 
-0.00022830704895811642 
2.2946519430870803e-5 
-0.00011409398140205976 
0.012847236741396168 
-1.9951844288326756e-6 
-1.1206277141759114e-5 
0.00015837075807694542 
-0.000382879000169323 
1.0413273404602858e-7 
2.7181768078789745e-5 
1.603718277747544e-5 
-0.0001942905993845223 
2.251944564020589e-6 
0.00010032264937166802 
-0.00031729782091089777 
0.04965258477906768 
6.131959758000497e-7 
7.840786206668844e-5 
-0.0006265374186244344 
-0.0005228646071293322 
6.0743842360774085e-6 
5.530374204816922e-6 
0.0031687801746941293 
5.64681854649354e-5 
3.741600606424828e-6 
6.675046482187604e-5 
0.0030537392634020152 
0.007334636532395 
-6.555983584025683e-6 
0.0004532161795253768 
0.0008791401526323332 
-4.0699605408739565e-7 
-1.7043007171635328e-5 
-6.433000488287545e-5 
-0.0013739408208886174 
-0.0002796334334230495 
3.369462230607944e-7 
5.393303219566325e-5 
-7.56440775844615e-8 
-1.2909553871717467e-5 
5.018116990308394e-5 
5.444304901580387e-5 
1.8079157264636454e-5 
0.00742511780633988 
-6.335370052382514e-6 
0.0002264250746862506 
1.4842312635513642e-6 
6.035200218965694e-5 
6.094739939157796e-5 
0.0003786261744528129 
-9.167919445369003e-6 
0.0013850477965900998 
-0.0013648035735823886 
1.7398896655206874e-8 
1.1052427935216338e-5 
-0.0003568933440806734 
-3.164498273180568e-6 
0.35435447631302697 
-5.547368832872804e-8 
1.9575157100658242e-5 
0.0004421936328576921 
-0.00044500451369354325 
-8.138304707356458e-7 
2.6861221008719053e-5 
6.771240804289521e-5 
0.01771125846636771 
6.28280299049855e-6 
3.2342109031764837e-7 
5.28179691000464e-6 
0.0002932320736201502 
-0.0019446692639830474 
-6.515404836605667e-7 
0.00015455567684427509 
-0.000291845090051229 
-1.7720667481917521e-7 
-1.9598363451645632e-5 
-0.00015217046972679652 
-5.762030701849183e-7 
-6.42029827516127e-5 
-0.00010305629511983036 
0.0006930279168411772 
7.3234621181058004e-9 
6.7089165613939615e-6 
-6.903085591911634e-5 
-0.0005420936872488956 
-5.790040438675128e-7 
-0.000265080896506776 
0.0004275826755176281 
0.12668364021333928 
1.1721064475828764e-5 
-0.0003169503809354512 
-0.0002332288770714044 
0.0009156951011505134 
0.004743993870809382 
0.5181363983401586 
7.173727072063124e-7 
1.3001745741472175e-5 
-0.00047469391438834764 
0.0012852876423823407 
0.8079609042021969 
2.448029173194774e-7 
-0.00016169657071724865 
0.0002505563692823101 
-8.515645280381577e-6 
-7.339457818374547e-6 
0.0002959551033880772 
0.0011729911520521137 
0.10364241096151655 
-0.00015317211430866497 
-2.875543949497238e-6 
-0.00021412402662159116 
0.0010517049223632306 
0.03012857490305023 
-4.241127430382266e-8 
-6.545271079088941e-6 
-0.0001138840023738887 
-0.0006069073223716087 
-0.000107060559039002 
0.10722299021861044 
-2.176146761139724e-6 
0.00011570947350291361 
0.0002909961169703752 
-5.007985505621755e-6 
7.613846556544538e-5 
-0.00011015537583839416 
0.034080191825671444 
-5.272689965065893e-6 
-2.6616774281369133e-6 
-0.0008391939627960284 
0.00036985045147978007 
0.00510604089530027 
2.9891397289014044e-6 
0.0001428452924164101 
0.0030893124911935558 
-0.00012327987908687817 
3.815037322233633e-5 
1.1661300346349822e-5 
-7.415078456706926e-8 
-1.8035446201736083e-6 
-0.00010942556478769341 
-0.0004255220874325056 
0.0014054371483559534 
-4.0071779504900784e-7 
4.503380859346845e-5 
-0.000664968390033558 
0.0002030144426904278 
1.4423116922292867e-6 
1.972133098949911e-5 
-0.00014075756089173592 
0.0006114219627422864 
8.55487374979096e-6 
-2.6063046835993555e-6 
4.6299316560285965e-5 
-7.638729583746398e-8 
-1.889394092007453e-5 
-2.3165918464754415e-5 
-0.00012601775425709013 
-3.8712032949288806e-10 
-4.1219142572306874e-7 
-0.00011171683590793944 
-0.00017762520892193134 
-0.00029572766949786125 
0.5557524467610454 
4.790547473226614e-7 
7.227431081526532e-5 
0.0014719965550143775 
-6.9663389833235625e-6 
2.19823424130137e-5 
-3.342011805774773e-5 
0.0005306185125952141 
-0.0007084730021988265 
0.21900854987792925 
1.8457083298543833e-6 
-0.00022043350173355823 
-6.317667498268183e-5 
0.0011397303691985427 
-6.1991074499956354e-6 
0.0001364258797871124 
1.1705416981201923e-5 
-0.0036587651348055903 
-6.43110661965711e-7 
1.9506870769995154e-5 
-1.7603522407869324e-5 
3.889208487787084e-6 
1.6540367298020877e-5 
0.0002610755285622504 
-3.917235806830585e-5 
-1.1675119117621179e-7 
0.007390545720255241 
0.021493471431767122 
-1.9451167481616034e-7 
-0.0005728279988724575 
-0.0004463404885778826 
4.2896806117349915e-6 
-7.599194071682518e-5 
-0.0006906187457523518 
1.9403781942819806e-7 
2.3074503035707526e-6 
-0.0007340691015980554 
0.015072406398951204 
9.62684466121235e-6 
-0.0002341720118129172 
8.913075409375209e-7 
-5.248588591954067e-6 
-7.841278586440611e-5 
-0.002433038327766067 
-0.0002659807560724285 
0.03080760879726329 
-7.033537149389009e-7 
2.044660793126714e-5 
-0.0010148109355139557 
-1.8109413056457706e-6 
1.5625230493372212e-5 
-9.356299540436332e-5 
0.2973614880723873 
-2.543791354013682e-7 
2.6135547291239254e-5 
0.0002169401079049566 
7.918288282667062e-8 
-9.017720271853607e-7 
8.988497429713518e-5 
-8.548119389738058e-5 
-0.0005523970568789953 
1.7715123569541204e-6 
7.531923226762451e-5 
1.769505436907495e-5 
0.0006634110843559028 
1.5216944367394474e-7 
-6.653244008615583e-6 
0.00011012496679303578 
0.002020273100576375 
6.333888194243526e-8 
6.714573373721347e-8 
0.0001774788896422268 
-2.4351423134733564e-7 
-2.0296557758834433e-5 
3.893960785156112e-6 
6.333281769204058e-6 
-0.00010825641124945376 
-0.0012779061237734894 
1.2522136368962574e-6 
-3.0696304504863715e-8 
-1.1181730491975833e-5 
4.3255753629457774e-5 
0.0021500290350619893 
0.00352519869701029 
-1.2671565592658193e-5 
-0.00018883805774402032 
-0.00013844168422786962 
-1.7345029404578268e-7 
-1.7282087052864935e-5 
-0.0004814252924255264 
0.012583842169793233 
-0.0011368445275060837 
9.14140538359467e-7 
5.8752346871752746e-5 
-0.0004715968516399218 
0.22562802487737266 
-0.00022510201538324893 
-4.02211527639501e-8 
-2.226725276181616e-6 
-0.0002473326814769768 
0.00012821745010692878 
3.5858102824609298e-6 
8.876882935856621e-5 
0.006442497405113979 
0.0010566479337432147 
-6.094867483011942e-7 
8.515483010138515e-5 
0.0008408201654658704 
-0.0010677919782729978 
0.023073934572619866 
0.01318612622175147 
-3.1898399817686333e-6 
6.267724218994094e-7 
2.4183721188770415e-6 
1.240676327611463e-5 
7.232536399848004e-6 
-3.096495454565797e-5 
0.0004822857923598088 
-0.0009700068358544893 
0.00044128619967096514 
0.616249467589991 
0.3176641117888773 
0.3649810132429543 
-3.4046649965121633e-7 
-7.341013056642772e-8 
3.964809047629039e-7 
3.564238895666118e-6 
-3.129056596878054e-5 
-1.5760860393587605e-5 
0.0004895191456076288 
-0.00011411783150213733 
-0.0007837484202974242 
0.0029617078702724588 
0.014543479638487667 
-0.00035804306491773774 
0.0001463286275527403 
7.75856491501936e-5 
-1.447997950130752e-5 
1.2566808885410983e-5 
-1.5864768261967768e-5 
0.0003721226014817627 
0.00021783686358229411 
0.46977312691734313 
0.24534612115121118 
2.250613189246929e-7 
-3.7967915388277326e-7 
-4.726613670978336e-6 
3.645904332031512e-5 
1.2704755135766584e-5 
4.3740057735760557e-7 
-2.1081496173748833e-5 
-0.003932371260367313 
0.0031586969875433144 
-0.0008754801860727028 
0.003735993575290734 
-0.0033392472984281663 
0.0007714574815486169 
-0.00017886981181831967 
0.0006476199280027727 
2.147301367080494e-7 
-6.351931292801288e-7 
5.442996700167024e-7 
1.642101522176889e-5 
-3.749514612929488e-5 
3.5016911696480285e-5 
9.099147487761394e-5 
7.648254574886043e-5 
0.00023882834124303942 
-0.00036652815376391146 
6.417089161283965e-5 
-9.905510095371032e-9 
3.6123782784099766e-9 
-4.3884096483574695e-6 
3.395173705651312e-6 
1.9199539298993318e-5 
0.00011720681393658513 
0.0001399774881447769 
-0.0001246752838973611 
6.498102504828733e-8 
-3.4087904924255674e-8 
2.1982213110323663e-5 
-1.1375582487271702e-5 
0.00024825897424062275 
5.695893285763572e-5 
-0.00020685727147466007 
-0.00046785019656748865 
-0.000326613179760995 
0.6386014412782716 
0.3218740870695928 
0.3312710776729672 
-3.2346901018074506e-7 
-2.4408882362256817e-6 
2.3685798836881813e-6 
9.290690840587603e-5 
-2.223826768117805e-6 
-7.088860615025045e-5 
-6.512808677380718e-7 
5.277154354506471e-7 
2.95194342168657e-7 
-4.799719841292217e-5 
5.8387507978089e-5 
1.8668025772339715e-5 
8.143051719078915e-5 
-2.286280178675043e-6 
9.085508427127867e-5 
0.0008801259666569617 
-0.0006289658440466972 
0.0003654366338894597 
1.0110773159471831e-9 
3.59292373568405e-8 
-1.0536905932130931e-8 
9.928930382327218e-6 
-1.0557961312649462e-5 
2.6475778721201e-6 
-5.1245227857870235e-5 
0.00012375173264018795 
-3.700632802056449e-5 
-0.001036925503537533 
0.0008379217796586504 
-6.077590358329434e-5 
-0.0002730841205741814 
1.0866608960206076e-6 
7.80081561993576e-5 
0.0001258340804510687 
6.171792716144118e-8 
-3.391558251426303e-6 
-5.307198216069135e-5 
9.726584729027625e-5 
5.277887323523614e-7 
4.296062694269e-7 
-1.365055035769998e-6 
4.766729498606458e-6 
0.00027166433463271 
-7.332243531816419e-5 
0.0005124175852550734 
4.507373328809973e-5 
0.000701389609016159 
-0.00039015649519580456 
0.0007264483108978414 
-0.0001718632890804709 
-0.0005863160748684191 
6.082505318222244e-10 
1.8237915219267618e-8 
6.325499463203224e-6 
9.920930614438266e-6 
-6.645176472399755e-7 
-0.00013420009648477756 
-6.298753902208047e-5 
6.199382220090954e-5 
-1.455073752812048e-7 
1.382612315755494e-7 
-3.220369362164084e-5 
3.027718331107319e-5 
9.124825686087957e-7 
-0.0001454799384439202 
5.0308584279325626e-5 
0.0006878565769481022 
0.2925112823190451 
0.13355612812409656 
2.300400853849838e-6 
-7.47030241472737e-8 
-5.398516463647959e-5 
-2.7319693512594347e-5 
-0.0011324273410229146 
0.0007255961114481332 
0.001689615272280956 
1.4152989869026623e-7 
1.1192120266525664e-7 
5.291537062640182e-7 
2.7486138912187517e-6 
-8.832670886047263e-6 
2.413408746064298e-6 
-7.867863678174332e-5 
6.302661359633473e-5 
0.00012345481506247685 
3.520555522631026e-5 
-1.1867920378340793e-5 
-0.0011536610382399117 
0.00017693409779881924 
-1.8613871485543577e-6 
-2.8024907173388033e-8 
-6.450445869299536e-5 
-2.1125743281200398e-5 
-0.0006115621773809256 
0.0003732171780745022 
6.695997088294836e-5 
0.00014662893339113076 
-6.013493326925086e-6 
-3.884957374710145e-6 
-1.4954640385478576e-6 
1.0487573662189391e-5 
-8.913842346197837e-5 
0.00012572369584513323 
-0.00023950610206871097 
0.001051580614632273 
-0.00015568729369643214 
-0.0020935828333712957 
-9.32000428352655e-8 
1.304781086746868e-7 
3.389295022228397e-8 
-9.343066557527578e-6 
1.6737249839898697e-5 
7.728661002784591e-6 
0.0001529603526804905 
0.00022204946751285806 
-0.0002624846885138644 
0.0004458010060609337 
-0.0003284123663757021 
-0.00016670210383200272 
-0.00023645506111118846 
0.0006286453931364514 
1.1214572253714155e-8 
8.117018274229762e-8 
9.764627356232368e-6 
-2.03861704521177e-6 
-8.080296007032815e-6 
6.894706420500057e-5 
-0.0003727316616829711 
0.0011938249327103781 
0.0010618921248834938 
0.00028598176843131867 
5.750593316676049e-8 
-2.9171010202085164e-8 
-1.7601083672231774e-6 
7.0465822533167746e-6 