# vtk DataFile Version 3.0 
Unstructured Grid 
ASCII 
DATASET UNSTRUCTURED_GRID
POINTS 2173 float 
-0.5 -0.5 0  
0.5 -0.5 0  
0.5 0.5 0  
-0.5 0.5 0  
-0.475 -0.5 0  
-0.45 -0.5 0  
-0.425 -0.5 0  
-0.4 -0.5 0  
-0.375 -0.5 0  
-0.35 -0.5 0  
-0.325 -0.5 0  
-0.3 -0.5 0  
-0.275 -0.5 0  
-0.25 -0.5 0  
-0.225 -0.5 0  
-0.2 -0.5 0  
-0.175 -0.5 0  
-0.15 -0.5 0  
-0.125 -0.5 0  
-0.1 -0.5 0  
-0.075 -0.5 0  
-0.05 -0.5 0  
-0.025 -0.5 0  
-1.3761214e-12 -0.5 0  
0.025 -0.5 0  
0.05 -0.5 0  
0.075 -0.5 0  
0.1 -0.5 0  
0.125 -0.5 0  
0.15 -0.5 0  
0.175 -0.5 0  
0.2 -0.5 0  
0.225 -0.5 0  
0.25 -0.5 0  
0.275 -0.5 0  
0.3 -0.5 0  
0.325 -0.5 0  
0.35 -0.5 0  
0.375 -0.5 0  
0.4 -0.5 0  
0.425 -0.5 0  
0.45 -0.5 0  
0.475 -0.5 0  
0.5 -0.475 0  
0.5 -0.45 0  
0.5 -0.425 0  
0.5 -0.4 0  
0.5 -0.375 0  
0.5 -0.35 0  
0.5 -0.325 0  
0.5 -0.3 0  
0.5 -0.275 0  
0.5 -0.25 0  
0.5 -0.225 0  
0.5 -0.2 0  
0.5 -0.175 0  
0.5 -0.15 0  
0.5 -0.125 0  
0.5 -0.1 0  
0.5 -0.075 0  
0.5 -0.05 0  
0.5 -0.025 0  
0.5 -1.3761214e-12 0  
0.5 0.025 0  
0.5 0.05 0  
0.5 0.075 0  
0.5 0.1 0  
0.5 0.125 0  
0.5 0.15 0  
0.5 0.175 0  
0.5 0.2 0  
0.5 0.225 0  
0.5 0.25 0  
0.5 0.275 0  
0.5 0.3 0  
0.5 0.325 0  
0.5 0.35 0  
0.5 0.375 0  
0.5 0.4 0  
0.5 0.425 0  
0.5 0.45 0  
0.5 0.475 0  
0.475 0.5 0  
0.45 0.5 0  
0.425 0.5 0  
0.4 0.5 0  
0.375 0.5 0  
0.35 0.5 0  
0.325 0.5 0  
0.3 0.5 0  
0.275 0.5 0  
0.25 0.5 0  
0.225 0.5 0  
0.2 0.5 0  
0.175 0.5 0  
0.15 0.5 0  
0.125 0.5 0  
0.1 0.5 0  
0.075 0.5 0  
0.05 0.5 0  
0.025 0.5 0  
1.3761214e-12 0.5 0  
-0.025 0.5 0  
-0.05 0.5 0  
-0.075 0.5 0  
-0.1 0.5 0  
-0.125 0.5 0  
-0.15 0.5 0  
-0.175 0.5 0  
-0.2 0.5 0  
-0.225 0.5 0  
-0.25 0.5 0  
-0.275 0.5 0  
-0.3 0.5 0  
-0.325 0.5 0  
-0.35 0.5 0  
-0.375 0.5 0  
-0.4 0.5 0  
-0.425 0.5 0  
-0.45 0.5 0  
-0.475 0.5 0  
-0.5 0.475 0  
-0.5 0.45 0  
-0.5 0.425 0  
-0.5 0.4 0  
-0.5 0.375 0  
-0.5 0.35 0  
-0.5 0.325 0  
-0.5 0.3 0  
-0.5 0.275 0  
-0.5 0.25 0  
-0.5 0.225 0  
-0.5 0.2 0  
-0.5 0.175 0  
-0.5 0.15 0  
-0.5 0.125 0  
-0.5 0.1 0  
-0.5 0.075 0  
-0.5 0.05 0  
-0.5 0.025 0  
-0.5 1.3761214e-12 0  
-0.5 -0.025 0  
-0.5 -0.05 0  
-0.5 -0.075 0  
-0.5 -0.1 0  
-0.5 -0.125 0  
-0.5 -0.15 0  
-0.5 -0.175 0  
-0.5 -0.2 0  
-0.5 -0.225 0  
-0.5 -0.25 0  
-0.5 -0.275 0  
-0.5 -0.3 0  
-0.5 -0.325 0  
-0.5 -0.35 0  
-0.5 -0.375 0  
-0.5 -0.4 0  
-0.5 -0.425 0  
-0.5 -0.45 0  
-0.5 -0.475 0  
-0.002115384 -0.00023065208 0  
-0.20714286 -0.20714286 0  
0.20714286 -0.20714286 0  
0.20714286 0.20714286 0  
-0.20714286 0.20714286 0  
-0.28155318 -0.0017231192 0  
0.0017231192 -0.28155318 0  
0.28155318 0.0017231192 0  
-0.0017231192 0.28155318 0  
0.3319978 -0.33098683 0  
0.33098683 0.3319978 0  
-0.3319978 0.33098683 0  
-0.33098683 -0.3319978 0  
-0.14015679 -0.06698606 0  
0.06698606 -0.14015679 0  
0.14015679 0.06698606 0  
-0.06698606 0.14015679 0  
-0.1387125 -0.34573975 0  
0.34573975 -0.1387125 0  
0.1387125 0.34573975 0  
-0.34573975 0.1387125 0  
0.14046866 -0.34602854 0  
0.34602854 0.14046866 0  
-0.14046866 0.34602854 0  
-0.34602854 -0.14046866 0  
-0.05869875 -0.16617337 0  
0.18217777 -0.061504476 0  
0.062312964 0.18362015 0  
-0.18362015 0.062312964 0  
-0.034321424 -0.38563195 0  
0.38563195 -0.034321424 0  
0.034321424 0.38563195 0  
-0.38563195 0.034321424 0  
0.39586002 -0.2428538 0  
0.2428538 0.39586002 0  
-0.39586002 0.2428538 0  
-0.2428538 -0.39586002 0  
0.23688246 -0.38952246 0  
0.38952246 0.23688246 0  
-0.23688246 0.38952246 0  
-0.38952246 -0.23688246 0  
-0.24287231 -0.09948847 0  
0.09948847 -0.24287231 0  
0.24287231 0.09948847 0  
-0.09948847 0.24287231 0  
-0.11560815 -0.24300627 0  
0.24300627 -0.11560815 0  
0.11560815 0.24300627 0  
-0.24300627 0.11560815 0  
-0.40192315 -0.4008276 0  
0.4008276 -0.40192315 0  
0.40192315 0.4008276 0  
-0.4008276 0.40192315 0  
0.06409326 -0.40289903 0  
0.40289903 0.06409326 0  
-0.06409326 0.40289903 0  
-0.40289903 -0.06409326 0  
0.2962961 -0.23982804 0  
0.23982804 0.2962961 0  
-0.2962961 0.23982804 0  
-0.23982804 -0.2962961 0  
-0.28087237 -0.21196799 0  
0.21196799 -0.28087237 0  
0.28087237 0.21196799 0  
-0.21196799 0.28087237 0  
-0.0901279 0.007867504 0  
-0.05002927 -0.07494272 0  
0.0873353 -0.009871756 0  
0.0071518295 0.09216282 0  
-0.14120433 -0.1484696 0  
-0.14581114 0.13960092 0  
0.1458264 -0.14505939 0  
0.13960092 0.14581114 0  
0.41838804 -0.3182741 0  
0.3182741 0.41838804 0  
-0.41838804 0.3182741 0  
-0.3182741 -0.41838804 0  
0.32118136 -0.41712493 0  
0.41712493 0.32118136 0  
-0.32118136 0.41712493 0  
-0.41712493 -0.32118136 0  
-0.19707234 -0.014843048 0  
0.018050108 -0.20183705 0  
0.19707234 0.014843048 0  
-0.014843048 0.19707234 0  
-0.10938372 -0.41847488 0  
0.41847488 -0.10938372 0  
0.10938372 0.41847488 0  
-0.41847488 0.10938372 0  
0.15773043 -0.4267032 0  
0.4267032 0.15773043 0  
-0.15773043 0.4267032 0  
-0.4267032 -0.15773043 0  
-0.3204562 -0.07174808 0  
0.07174808 -0.3204562 0  
0.3204562 0.07174808 0  
-0.07174808 0.3204562 0  
0.02801032 -0.07269879 0  
-0.31817523 0.069836795 0  
-0.069836795 -0.31817523 0  
0.31817523 -0.069836795 0  
0.069836795 0.31817523 0  
0.43106207 -0.17757268 0  
0.17757268 0.43106207 0  
-0.43106207 0.17757268 0  
-0.17757268 -0.43106207 0  
0.0703783 0.071201205 0  
-0.051593844 0.064346604 0  
0.099701226 -0.08333426 0  
0.2863281 -0.17248559 0  
0.17248559 0.2863281 0  
-0.2863281 0.17248559 0  
-0.17248559 -0.2863281 0  
-0.2341888 0.04979648 0  
-0.049194112 -0.231281 0  
0.23358595 -0.04946041 0  
0.04979648 0.2341888 0  
-0.009939441 -0.13691185 0  
-0.26560438 -0.17864102 0  
0.17864102 -0.26560438 0  
0.26560438 0.17864102 0  
-0.17864102 0.26560438 0  
0.013302229 -0.43510666 0  
0.43510666 0.013302229 0  
-0.013302229 0.43510666 0  
-0.43510666 -0.013302229 0  
0.09432827 0.114700764 0  
-0.11539384 0.093188405 0  
-0.3413634 -0.005100272 0  
0.005100272 -0.3413634 0  
0.3413634 0.005100272 0  
-0.005100272 0.3413634 0  
-0.19817708 -0.3508856 0  
0.3508856 -0.19817708 0  
0.19817708 0.3508856 0  
-0.3508856 0.19817708 0  
-0.34100306 -0.27216324 0  
0.27216324 -0.34100306 0  
0.34100306 0.27216324 0  
-0.27216324 0.34100306 0  
-0.20269383 -0.14403741 0  
0.14393912 -0.2028372 0  
0.2026342 0.14393856 0  
-0.14393856 0.2026342 0  
-0.1030633 -0.10524017 0  
-0.4394695 -0.104853734 0  
0.104853734 -0.4394695 0  
0.4394695 0.104853734 0  
-0.104853734 0.4394695 0  
-0.44156647 -0.44156647 0  
0.44156647 -0.44156647 0  
0.44156647 0.44156647 0  
-0.44156647 0.44156647 0  
-0.2683254 -0.44465622 0  
0.44465622 -0.2683254 0  
0.2683254 0.44465622 0  
-0.44465622 0.2683254 0  
0.2654342 -0.4435478 0  
0.4435478 0.2654342 0  
-0.2654342 0.4435478 0  
-0.4435478 -0.2654342 0  
-0.27373606 -0.34534052 0  
0.34534052 -0.27373606 0  
0.27373606 0.34534052 0  
-0.34534052 0.27373606 0  
-0.05307205 -0.4481981 0  
0.4481981 -0.05307205 0  
0.05307205 0.4481981 0  
-0.4481981 0.05307205 0  
-0.35614902 -0.19390328 0  
0.19390328 -0.35614902 0  
0.35614902 0.19390328 0  
-0.19390328 0.35614902 0  
-0.14022674 -0.012452113 0  
0.14171903 0.011271359 0  
-0.01125192 0.14089845 0  
-0.19556868 -0.06932378 0  
0.070511825 -0.19668652 0  
0.19556868 0.06932378 0  
-0.06932378 0.19556868 0  
-0.24951252 -0.039742906 0  
0.04037078 -0.2503529 0  
0.24951252 0.039742906 0  
-0.039742906 0.24951252 0  
0.44100407 -0.36164257 0  
0.36164257 0.44100407 0  
-0.44100407 0.36164257 0  
-0.36164257 -0.44100407 0  
-0.4451273 -0.36589316 0  
0.36589316 -0.4451273 0  
0.4451273 0.36589316 0  
-0.36589316 0.4451273 0  
0.1121834 -0.30242515 0  
0.30242515 0.1121834 0  
-0.1121834 0.30242515 0  
-0.30242515 -0.1121834 0  
-0.115146436 -0.19087775 0  
0.19190264 -0.11309679 0  
0.11520548 0.19263776 0  
-0.19263776 0.11520548 0  
-0.08287991 -0.37025127 0  
0.37025127 -0.08287991 0  
0.08287991 0.37025127 0  
-0.37025127 0.08287991 0  
0.23791528 -0.24381089 0  
0.24381089 0.23791528 0  
-0.23791528 0.24381089 0  
-0.24381089 -0.23791528 0  
-0.44626984 -0.21174923 0  
0.21174923 -0.44626984 0  
0.44626984 0.21174923 0  
-0.21174923 0.44626984 0  
0.35174853 -0.37705234 0  
0.37705234 0.35174853 0  
-0.35174853 0.37705234 0  
-0.37705234 -0.35174853 0  
-0.048605647 -0.023262763 0  
-0.1551113 -0.21381997 0  
0.21381997 -0.1551113 0  
0.1551113 0.21381997 0  
-0.21381997 0.1551113 0  
-0.29403278 -0.30027482 0  
0.30027482 -0.29403278 0  
0.29403278 0.30027482 0  
-0.30027482 0.29403278 0  
0.12173745 -0.390654 0  
0.390654 0.12173745 0  
-0.12173745 0.390654 0  
-0.390654 -0.12173745 0  
-0.12236246 -0.2979882 0  
0.2979882 -0.12236246 0  
0.12236246 0.2979882 0  
-0.2979882 0.12236246 0  
-0.0945969 -0.046371013 0  
0.035276897 -0.027358124 0  
-0.0076714605 0.051946 0  
-0.30809116 -0.17165439 0  
0.17165439 -0.30809116 0  
0.30809116 0.17165439 0  
-0.17165439 0.30809116 0  
-0.16592422 -0.10879113 0  
0.10700909 -0.1687818 0  
0.16864619 0.10664837 0  
-0.10664837 0.16864619 0  
-0.16784625 -0.38069874 0  
0.38069874 -0.16784625 0  
0.16784625 0.38069874 0  
-0.38069874 0.16784625 0  
-0.4563872 -0.05993889 0  
0.05993889 -0.4563872 0  
0.4563872 0.05993889 0  
-0.05993889 0.4563872 0  
0.31103167 -0.37412483 0  
0.37412483 0.31103167 0  
-0.31103167 0.37412483 0  
-0.37412483 -0.31103167 0  
-0.3909646 -0.012754724 0  
0.012754724 -0.3909646 0  
0.3909646 0.012754724 0  
-0.012754724 0.3909646 0  
0.44915667 -0.21679194 0  
0.21679194 0.44915667 0  
-0.44915667 0.21679194 0  
-0.21679194 -0.44915667 0  
0.045831423 0.12033131 0  
-0.12662303 0.045442794 0  
-0.3107799 -0.37355793 0  
0.37355793 -0.3107799 0  
0.3107799 0.37355793 0  
-0.37355793 0.3107799 0  
0.04152367 0.021693805 0  
-0.08040017 -0.2675595 0  
0.26794365 -0.08044455 0  
0.080500565 0.2680441 0  
-0.2680441 0.080500565 0  
-0.13753757 -0.45578164 0  
0.45578164 -0.13753757 0  
0.13753757 0.45578164 0  
-0.45578164 0.13753757 0  
-0.05507968 -0.12135967 0  
0.14172421 -0.09428923 0  
0.2571752 -0.19664502 0  
[...]
POINT_DATA 2173 
SCALARS T float 
LOOKUP_TABLE default 
-8.2402239110208e-18 
-9.527047848873914e-23 
4.994935155665473e-20 
-3.571585844107067e-18 
4.562462497206481e-17 
6.055115595983275e-17 
-3.9390457388374167e-16 
1.745694049094841e-16 
5.950770734118731e-17 
2.89136951945361e-16 
-1.196293438471379e-16 
8.830613323345507e-16 
-2.9869504179600313e-16 
1.294895664941873e-16 
2.672667057825092e-16 
4.6861120672049606e-17 
-4.034213116990249e-17 
4.867641996294051e-17 
-3.5015536743562864e-17 
1.3224265626327767e-17 
-2.5539447358932857e-17 
1.8852331338006404e-17 
7.060001626834558e-18 
-1.9354959049879908e-17 
1.5665979785467638e-17 
-1.1528134501626981e-17 
9.31703098139245e-19 
-4.4511001173363997e-20 
-5.214388730026532e-20 
-1.4481188734362369e-19 
-1.6742372194295855e-20 
-1.7697622036425027e-20 
-1.0253415866144474e-20 
-3.455034707442855e-21 
-2.971070756515393e-21 
3.7491501620084827e-22 
-8.810260819201e-22 
-1.8703066215150472e-22 
3.342260205061235e-23 
6.604687078516077e-23 
5.402434193731467e-22 
-3.405870336716443e-22 
-5.562236707544791e-22 
3.877427716069574e-22 
1.1948587747370825e-21 
-3.2250423840231303e-21 
1.6548261548602254e-21 
1.1303004724948297e-22 
2.433271180289215e-21 
-2.8967768265935393e-21 
-4.867394094059461e-21 
1.9244474258664474e-20 
-3.0867718791864516e-20 
3.446320379462356e-20 
-6.54045448174672e-20 
1.2674650138247052e-19 
-3.7057725198452035e-19 
6.999139827119024e-19 
-8.405129465968682e-19 
8.158961387267927e-19 
-6.79526752840691e-19 
4.173645621328502e-19 
-1.3962031244045727e-18 
2.5665113470189714e-18 
-4.1848189612702524e-18 
4.118223168685161e-18 
-2.6058618534453623e-18 
3.769344041659132e-18 
-4.415606184638363e-19 
-1.8285242738331015e-18 
5.44825916640483e-18 
-7.78060940243374e-18 
1.107689230023459e-17 
-1.1857541106297778e-17 
-6.584548061363669e-18 
-1.7381333970993506e-18 
-7.515352276492454e-18 
-4.461650008901675e-18 
-6.405410232763803e-18 
1.4433491735265328e-17 
-4.425149675913221e-18 
-6.398238321769119e-18 
6.014200093875858e-18 
5.191269759429881e-18 
-1.791655697931994e-17 
9.536075488743755e-18 
2.1936133305716807e-18 
-1.3774220400001667e-18 
-2.146506128259854e-18 
-1.5432706546650236e-17 
4.5955171483180806e-17 
-5.4557321995003284e-17 
3.6118318062140034e-17 
-2.871397336658546e-17 
3.90523134541058e-17 
-1.043807568017237e-16 
1.8368232390139716e-16 
-2.2529041678382526e-16 
2.3559425684070715e-16 
-5.103430795379831e-17 
-1.605621361301675e-16 
-4.058383426078598e-17 
2.2141729438396092e-16 
-4.183186792175485e-16 
5.208102212695836e-16 
-5.783771066784762e-16 
-1.1219745185548947e-16 
2.795269376363712e-17 
-4.1404320670430483e-16 
2.1806168221373463e-16 
-3.0001746271091873e-16 
-3.468874411012301e-16 
-1.222088750538592e-16 
-8.804373927999772e-16 
1.9826575615179618e-16 
-5.609283158662273e-16 
-4.070690417453665e-16 
-2.3474987286060626e-16 
-4.7935510543367426e-17 
-3.411723850066225e-17 
1.120175019081204e-16 
-1.220634010579712e-16 
-4.820039875937779e-17 
-5.521675685252386e-17 
-1.5743858436987527e-16 
-1.5331648575825977e-16 
7.573001001203942e-17 
-3.47516566022345e-16 
4.418975193520834e-16 
-7.987620296694319e-16 
3.349676591907922e-16 
1.9518328656761256e-16 
-1.9836190748565955e-16 
-2.388898384944002e-16 
3.0502801450106294e-16 
6.165317289547321e-17 
-3.765193061835906e-16 
7.554576166081075e-16 
6.431036713640692e-16 
-1.7390076505905875e-15 
1.1836909539222647e-15 
-6.207553907608098e-16 
1.448330983219014e-17 
1.449587956945511e-15 
-3.1324233407886585e-15 
-1.4331463862141955e-15 
-1.1477190130250926e-16 
-1.0731537862412081e-15 
-1.022745202157851e-16 
-5.451781155128218e-16 
2.0053532193548752e-16 
4.819434868014972e-16 
-1.2124392868104992e-15 
-3.270093731937743e-16 
7.53759355936733e-18 
1.656387344081225e-16 
2.726601424592314e-17 
2.630367836022866e-16 
6.143555530512308e-17 
-5.987485039182773e-17 
2.6364797935716388e-6 
0.041874493735660906 
1.3730910921178096e-8 
-7.251320248791629e-5 
0.0019403594843861174 
-0.0003209525543359752 
0.08337717062741185 
-1.4449531909483903e-6 
7.453284632682446e-5 
-1.8769786160477247e-9 
-4.611081449648695e-6 
-0.0003544047453866199 
0.0008886185715364219 
-0.0022273376744599113 
0.0004385958115157279 
2.5550832893534844e-6 
-0.0003077419219356426 
0.031904647704719874 
3.235401899808702e-8 
-3.306321471369583e-5 
0.0005892284547419529 
-2.805028080800912e-6 
1.4696180928035224e-6 
0.0003662862777646877 
0.002613711478501255 
0.26618911561459024 
-7.010601172016403e-8 
-7.57305607220529e-6 
-0.00021726014925857787 
0.0015029635167359133 
-7.515849073030017e-7 
-5.014941071472259e-5 
-0.0002514710874451762 
-6.761834267625306e-10 
-3.050391212893048e-6 
0.0008366778977723744 
-0.00017395336208844833 
2.192474191517848e-9 
2.1359768392952726e-6 
-0.0001838549726973445 
0.0010975550500060577 
-0.0008199369664844867 
0.00015423642441775 
6.466229309613805e-7 
-0.00026448233262920605 
0.7568576332211779 
3.781283050840399e-8 
3.556528570013508e-5 
-0.0012232515565144188 
0.0009744978180604644 
-1.9777384375914747e-10 
-5.828828319689205e-6 
0.00011352377644533693 
-4.792490834567017e-5 
-2.961336695927576e-6 
-1.3760173362479483e-5 
0.0008708329610609264 
-2.1628834068017425e-9 
-3.9890355800597155e-5 
0.0007980066125563596 
0.00460012488123078 
0.0027065000866605842 
-6.421160319265385e-8 
-1.431248397756825e-5 
0.0005233170711878754 
-0.0012234601586990782 
0.002456689158731467 
-1.5619614572869325e-6 
0.00010311650468171602 
0.11451339122152208 
-0.0007232007832512252 
-1.8131961136052023e-7 
1.3705955249007857e-5 
-2.094780308984797e-9 
-1.0548433800715067e-5 
-2.066006130250151e-5 
0.0007299057812117984 
-5.602640272350697e-10 
-9.822294106811564e-6 
3.926180252355013e-5 
-0.000882904320134989 
0.000882702440307676 
0.052000745659939646 
2.539082388579765e-7 
-0.00011083960513419 
-4.913892512107099e-6 
5.6409894688643874e-8 
1.1360957220206426e-5 
-0.0004965331662947699 
-5.961789280652212e-7 
1.3412950589097094e-6 
-0.0002686612458671555 
0.0002427565209661441 
-0.002355474998694804 
0.0003017810886029588 
6.464451537474473e-6 
0.00040218256274808143 
5.190167081642114e-5 
-0.001991224566212539 
0.15553511433492456 
-6.118238873794862e-8 
6.0960767743570574e-5 
-3.714800587124657e-8 
-2.6329076389083476e-5 
0.0008707135711542027 
-2.9880964656683836e-5 
-1.1038696787491282e-5 
8.914616230283172e-6 
5.91130879968171e-7 
-2.336921257146567e-9 
8.154749478423808e-6 
-0.0008278671572658999 
0.1007745784147023 
-0.00175332747401103 
0.6044523444704702 
-1.405386997807573e-7 
-4.684668777520893e-5 
0.02774551765395414 
-0.0023047961410978656 
2.1105034376590959e-7 
-2.2183059313109245e-5 
0.0003109773776418904 
-6.779624457272988e-5 
5.571473107765137e-7 
-7.468322352516744e-6 
-0.00016370819992452448 
2.870182153883708e-6 
1.2754254806151224e-5 
-0.0029340735196886672 
0.00854353005124953 
2.5837829688259057e-7 
7.253045898786723e-5 
0.002170168852947792 
-9.318077207677817e-9 
-3.702027397505221e-5 
0.00046213651341332215 
0.0026642111271515173 
6.992298789811205e-10 
-1.779539389539099e-5 
4.99885833519818e-5 
0.008764568118863107 
-1.2814207021606485e-6 
-1.2828582505859972e-5 
2.3352394748673425e-5 
0.023173142641056663 
-0.000402529868522327 
-5.94223210249224e-7 
-3.358292112815823e-6 
-0.00018699568341898524 
0.00031087501687517547 
1.3101693157122161e-9 
-2.9747660069906136e-7 
4.267880290959313e-5 
0.00023223078275457618 
1.1451966813388206e-8 
6.5849886704777234e-6 
0.00046297457329380734 
2.1429199870850162e-10 
-4.1422182216226314e-7 
-2.1146339036667465e-5 
0.0004551780989228178 
0.0028514220475775332 
6.616715124510093e-9 
-1.228396841471279e-5 
0.0004265614206985844 
-1.4713779207655237e-5 
-3.388846433755378e-7 
-9.089275605572566e-5 
-0.001140821162057829 
-0.0009337794774622863 
-2.3488279763130716e-7 
-1.8622050536646064e-5 
-6.041443731192269e-6 
-0.002650100699127492 
2.110056677079536e-6 
-3.178209587788491e-5 
0.0028989973310781475 
0.0016509300411179197 
-1.6554058849458948e-6 
9.28123640055513e-5 
0.0008827659818843301 
0.02091608070156495 
-1.3568545069077388e-7 
0.00011541924627720147 
5.012225373654709e-9 
1.0079890112300613e-5 
-0.00021249467963151204 
0.0005768144690007282 
0.0003170852391217649 
6.858738252178399e-10 
2.290207446891215e-6 
5.6169843913742934e-5 
-2.6817653302504204e-5 
-1.532896313520141e-5 
-5.703142049694734e-5 
-0.0009428938666556433 
0.5302953208378061 
-1.5727352614202995e-8 
-4.396069445003578e-5 
-0.0010851744535351946 
0.01133515406368416 
2.954900167209825e-7 
0.00010386483834926657 
-0.0016951463782283675 
-3.112366730598977e-9 
2.750019244015527e-5 
-0.0006830210274966968 
0.0009283535058094545 
0.00022641128229957622 
-1.802760672409291e-9 
3.170409533928497e-7 
0.00011477709345824023 
2.327194719627622e-9 
4.349348239489363e-6 
0.00011983713920616485 
-0.00020667168552086857 
0.00011106660536606 
0.34092451740209523 
-5.421232382980711e-9 
1.0596198736986154e-5 
-0.00047865676607391724 
-2.2984616760112995e-5 
4.378116968376134e-9 
-6.541565986472583e-6 
0.0005034195334867502 
-6.8260839853402595e-6 
-5.713040919346316e-7 
-0.0003392438740711347 
0.0018814052504903815 
0.2695846673924373 
-2.387395930068164e-8 
-3.1817856095746286e-5 
0.001809510486924185 
0.0004287284321588178 
1.3038135572400265e-6 
-8.619500024967804e-5 
0.0008835249777438101 
-3.586830262282596e-7 
-2.5127725409285705e-5 
0.00032991280753669183 
0.001472975190672734 
3.1117210419049753e-6 
-4.496472932197944e-6 
-0.00033185313027990786 
0.00175396726446579 
7.837702390699998e-9 
-3.7328196652576265e-6 
0.00048100650519739994 
0.0013328112740364504 
-1.0378714054662783e-5 
-2.2743400944329142e-6 
-5.2887177210111863e-5 
1.603216869767294e-9 
-7.86122767543429e-7 
-8.062186016855813e-5 
0.00038089170988363143 
-6.098063659639815e-5 
-7.21427597173505e-5 
-5.2303772585542766e-6 
-0.00025857991165512633 
2.9577488165327676e-9 
-5.429621275091325e-6 
1.1322865101518751e-5 
-0.0003313116747771832 
2.3353159443250115e-5 
-0.000273457970727055 
0.0007313903909899966 
3.4754511706381546e-9 
-6.886739575464699e-6 
0.000696679656555195 
-3.826764384248745e-7 
0.6494183814368008 
7.276314387839735e-8 
3.4890694672459265e-5 
0.00032576648818006805 
6.316757738399184e-5 
-2.0320761541218448e-7 
-2.8832009439701558e-5 
0.00021006024728178042 
0.042297468420912275 
-8.59207490512839e-8 
7.280427628976482e-9 
-2.5256681674703054e-5 
-5.646106192481932e-5 
0.06744476861243275 
-3.4410624234253663e-7 
9.746278060805519e-5 
0.00015276454568131952 
4.974127779832421e-9 
9.860408391570578e-6 
-0.00017059673023859265 
1.1895498546711973e-8 
2.2807612945768523e-5 
-0.00014307228313166053 
5.3397379106001444e-5 
5.048251800682748e-10 
4.1259069784747995e-6 
0.00024114580498803224 
0.0002616270272387398 
-5.512657249167088e-6 
0.00025612706188690037 
-0.0023450670791475684 
0.0013774719170287048 
8.86514276311217e-7 
0.00040776565020437107 
8.32991348592294e-5 
6.533397817924303e-6 
0.0026382857891494352 
0.23490879157347164 
3.1042508310910495e-7 
-1.03831251848738e-5 
0.0016309563354546261 
-0.001690213728249871 
0.19976367732735018 
2.3535438969808235e-7 
0.00021625993820642732 
0.0011054593572125111 
-1.1422555823368594e-7 
-5.198939587838159e-6 
-0.0001405977771305858 
4.3176617007901526e-5 
0.012121144105243618 
-2.289272097067792e-6 
-2.0335029190612233e-6 
0.0002864642601974963 
0.0007202989384396536 
0.19845769964576185 
-7.870326892729615e-10 
-7.851360918065335e-6 
0.00016706240700813381 
0.0014643224977645352 
0.0011643346538720565 
0.033169412339427454 
-3.6596791524166194e-7 
-0.00010284665607237644 
6.057232915552021e-5 
-7.384530414881285e-7 
-9.547584759247848e-5 
-9.30564315920588e-5 
0.0003349537095130806 
-2.2614206854894178e-6 
-0.00014860433338996973 
0.0019044053893764099 
0.00185322022593865 
-1.7639307855701494e-5 
-9.82066738340145e-6 
5.443770176656344e-5 
0.09443225249698904 
-0.00014568088179174802 
-7.669779699362661e-8 
-8.133901357783535e-6 
-5.296494691208385e-10 
7.009205360314596e-7 
6.910368467760582e-5 
0.0008007513824333359 
0.005860237993525444 
-3.7894562229563394e-8 
-2.088804817445714e-5 
0.0009563293568862944 
-1.0232778333293212e-5 
5.5879327306133e-7 
0.00011214159164377874 
-0.0002555087319806197 
2.7817405145290073e-5 
2.8888796923308217e-8 
-3.1330445554319765e-6 
0.00020848986000921178 
2.396764691209961e-9 
7.504684516045645e-6 
-1.4991020315758967e-5 
0.000255617645897243 
2.130631075522415e-10 
6.726823451731314e-6 
0.000130689851063689 
0.00013034021853716398 
0.002266100469414355 
0.24378653879532727 
-5.508031884159704e-7 
3.974788456337719e-5 
0.0005272937806965282 
-9.095666759640021e-7 
-0.00023067139977387741 
2.0326020481868173e-5 
0.00034129496624236034 
0.0004754843829368535 
0.006869549693596519 
-1.8400649947891127e-8 
0.00030055282927544914 
-0.00020179529181176602 
0.0006387401763585251 
-1.5176898983365047e-6 
-0.0002502006413215237 
7.500947622930472e-7 
0.011478511166598619 
3.459691734487893e-8 
-3.8776605621506086e-5 
0.0010294763713934055 
1.4422184208045978e-7 
4.6104214253905996e-5 
0.0001845630274905119 
-2.957065958692961e-5 
-2.249669238240526e-5 
-0.009326657512409861 
8.255153468122292e-5 
7.056832536295891e-6 
0.00020488986890135517 
-2.3339228768837354e-5 
1.325148710400996e-6 
0.0002708012721420175 
0.0008512171413397086 
3.00332442385872e-8 
1.6900096818755762e-5 
0.0004979813593068899 
0.33802251900661073 
1.4740575988252305e-6 
-0.0003160877987369024 
2.9153465925833287e-9 
-2.97096438348101e-6 
-0.00028379395242326933 
0.0037023332358930325 
4.4343341228528274e-5 
0.07479716801806893 
5.590365704430825e-9 
3.075211694444559e-5 
-3.638155950381027e-5 
-2.6476390877865023e-8 
3.594632919471725e-7 
0.00016128445904564236 
0.8262208150092698 
-8.784491407638609e-8 
-5.96105382205098e-5 
0.0031384295934522174 
1.970196501399471e-8 
1.3066506717930666e-5 
0.0002940671996399948 
-0.0010003422051307951 
-0.0002895644231884472 
4.318594273898363e-8 
1.0853367684521448e-5 
-0.00022849559854013903 
0.0348094848352809 
3.476109700010862e-8 
2.268113827632888e-5 
0.00020344777755433406 
0.012225480485081834 
-5.446851440778292e-9 
1.2859099210447386e-5 
-0.000721386015347526 
4.6736106115661645e-6 
-8.125921010535299e-5 
4.374694036045802e-8 
2.9790238560254134e-6 
4.255618145300708e-5 
3.755752427922909e-5 
0.0001302930145784397 
1.090588246379237e-9 
4.322725097943617e-6 
-2.1240865321221944e-5 
0.0038552070206846717 
-1.2366152131269874e-6 
6.920859640209128e-6 
-0.00037102671628724034 
-0.0002751116129520636 
6.860133649748394e-8 
1.5196490017528771e-5 
-0.000904070679540941 
0.0017695442857990039 
-4.347060591384303e-5 
1.2783041499147495e-7 
5.686804478689216e-5 
0.00048354176956905115 
0.08613873538104296 
-2.4742845363263885e-5 
3.1338896706086513e-9 
1.971724276200984e-7 
0.00018867409451620384 
1.0824573502306882e-8 
1.4738674514606526e-5 
-0.0003457926326285936 
0.0024545506601137625 
4.6117326452840745e-5 
-1.7352943663566776e-6 
-3.4698591863007725e-6 
-0.0009771189983998824 
0.18547426843938078 
0.4798009528487018 
0.2790008560907267 
-2.8684498899978698e-8 
6.6761831443166366e-9 
-1.2420194681128422e-8 
-2.6800253240795424e-5 
2.073948071813079e-5 
2.462066284820133e-5 
0.00016909129374396604 
0.0005844854523345516 
-0.00029576553323482855 
0.4176582699261069 
0.30403625345255564 
0.5067751053992746 
-1.8403904278543808e-7 
6.46913482183886e-8 
1.2388436523742834e-7 
1.0043112377169284e-5 
8.546387371841677e-5 
1.6135772369521998e-5 
0.0007441775504650176 
-0.0029413658259982655 
0.002117568581292435 
0.11032683692616073 
0.25818748583421486 
-0.0008301705890338045 
0.0017119727596196688 
2.828780004026917e-7 
8.020185580688391e-8 
-1.4189011186476195e-5 
6.409039976380776e-6 
0.0002842764161509158 
-0.0024634836225956307 
0.743908473397254 
0.5611829204414575 
1.1136932389860949e-7 
-6.360603735638057e-8 
6.059187435351341e-5 
-5.0460543031175115e-5 
1.4818630120116918e-5 
-7.921393374480782e-6 
-1.6866738004229997e-5 
0.0073735087011618464 
0.021632116625701258 
0.0027307102900879544 
0.0597410433423526 
0.030515303742633577 
-0.00018857397813295239 
7.17297358447861e-5 
-0.000290131522873438 
-5.297372470760702e-9 
-6.204389351067022e-9 
1.0626868579922225e-8 
8.323221567965454e-7 
9.271618570821512e-6 
-9.94863858649215e-6 
-0.00025127990182791045 
-0.000398116816148538 
7.787780509784652e-5 
-0.00011785052510751277 
-1.6986418336121853e-5 
4.778029819079146e-12 
-4.051322253562212e-11 
-2.098667588585058e-6 
3.8811353834952e-6 
0.0002666945720683574 
0.00015520379619614674 
-0.00012029966197722923 
0.00011211959085702761 
-2.2073474666788603e-9 
1.198786079779303e-9 
-6.881819122826747e-6 
5.349000402657671e-6 
-2.514641527841622e-5 
-9.939095022118464e-5 
-0.0002971147510589573 
0.00147870550592275 
0.0013063167340341525 
0.15406930947060515 
0.056660187289105726 
0.036055821291604805 
1.1873254209564494e-6 
-1.9766843862074793e-7 
-3.168908510699208e-7 
-0.00016766632470898763 
-4.3489261227723436e-5 
0.0001284827081790098 
7.588562059367615e-9 
-1.244204289336286e-8 
-2.9081881411524686e-9 
1.863189878647989e-5 
-1.9828887990552157e-5 
-8.270881508056149e-6 
-0.00034193812696786994 
2.6569603444955855e-5 
0.00022938476451820158 
-0.00012686943364078807 
-0.0001846869039981111 
0.0004353253067020213 
-3.977149758445001e-10 
-1.7804342977879688e-12 
1.0801424166331904e-9 
2.474409114713703e-6 
-7.643524512305899e-6 
4.751038569432061e-6 
0.00038020245250577705 
-0.00033987424030357635 
4.7314594605356076e-5 
0.0007184511093680492 
-0.0004107498301080725 
-0.00012854751285410284 
9.56048073187396e-5 
-1.3320232873532483e-8 
-2.5290724550495648e-5 
0.00019284054426659173 
1.2610985281019e-9 
-4.7786541946724215e-6 
0.0002178002944267837 
-0.0001050929762087189 
9.267858304397838e-10 
4.567754327163252e-9 
8.262711547079598e-7 
3.1092024971312167e-6 
-0.00030780489442617837 
0.0001378661283824618 
4.818557352972615e-5 
0.00032278056657747943 
0.0030097488835282046 
-0.003719960974199349 
0.0009810376368599666 
0.000305393765462652 
0.00047219397519038356 
4.4409563516500555e-11 
-4.2710379662411413e-10 
8.989824194102979e-6 
-5.469427622716089e-6 
0.00014376700756762043 
-4.200258630790362e-5 
0.0004308935238521003 
-0.0001637278474469711 
4.648541250722513e-9 
-3.966311929037708e-9 
8.486916752906313e-6 
-8.194996812802482e-6 
0.0001298873143151404 
0.00022733098481184542 
-0.0030814523856543224 
0.0006749138481491248 
0.10441139896420226 
0.020685607417080337 
3.1851015895941326e-7 
1.9048013870876068e-8 
9.94403285256118e-5 
-4.178413732388275e-5 
0.0012146673731135002 
-0.0012172190297600502 
-0.0011095775831013106 
-1.1501404752842065e-9 
2.0161953143264132e-9 
2.0988484737073156e-9 
-8.636104589961676e-6 
7.340657825717182e-6 
6.4360901555654945e-6 
9.013144564177481e-6 
-8.668812552382516e-5 
-6.857225971251329e-6 
1.2730029004244048e-5 
2.4377287539288512e-5 
0.00022389272638405434 
0.0009821903557940509 
-2.8649108529240385e-8 
-4.5591766612459776e-9 
-4.037176177199056e-6 
1.338276632757837e-5 
0.0005124451821876348 
-0.0007476935799510407 
1.4510571718700764e-6 
3.116705078726877e-6 
-2.1998110289495838e-7 
-5.376648727591412e-6 
3.0710919446993516e-6 
2.8182446137978935e-6 
0.00011341004123855822 
2.5426709231580244e-5 
0.0002925934005223267 
-0.0011994364359021088 
-0.0007796362475070285 
0.0023403897608908304 
2.301252554087382e-9 
-4.283329747349898e-9 
1.388019209554991e-10 
9.910645393088171e-6 
-1.0997493379020408e-5 
-2.276152744864741e-6 
-0.00017346471866937392 
-0.0002431456790868229 
0.0006079358832684291 
-0.00011704980823093293 
0.00019994259955257153 
-0.0003555129857765396 
0.00019158480620600749 
-0.00039728500168184486 
-1.1767464364633702e-9 
-1.1375757880310692e-9 
-9.694737982345366e-6 
8.252025234624784e-6 
0.00031287023938752356 
-0.00030865300112143274 
0.00019784149069045065 
0.001903822512304004 
0.008357854853445805 
0.003735642217246274 
-3.089268997239208e-9 
1.1304949117587242e-9 
2.3521434220304073e-7 
-2.3015815220082003e-6 