# vtk DataFile Version 3.0 
Unstructured Grid 
ASCII 
DATASET UNSTRUCTURED_GRID
POINTS 2173 float 
-0.5 -0.5 0  
0.5 -0.5 0  
0.5 0.5 0  
-0.5 0.5 0  
-0.475 -0.5 0  
-0.45 -0.5 0  
-0.425 -0.5 0  
-0.4 -0.5 0  
-0.375 -0.5 0  
-0.35 -0.5 0  
-0.325 -0.5 0  
-0.3 -0.5 0  
-0.275 -0.5 0  
-0.25 -0.5 0  
-0.225 -0.5 0  
-0.2 -0.5 0  
-0.175 -0.5 0  
-0.15 -0.5 0  
-0.125 -0.5 0  
-0.1 -0.5 0  
-0.075 -0.5 0  
-0.05 -0.5 0  
-0.025 -0.5 0  
-1.3761214e-12 -0.5 0  
0.025 -0.5 0  
0.05 -0.5 0  
0.075 -0.5 0  
0.1 -0.5 0  
0.125 -0.5 0  
0.15 -0.5 0  
0.175 -0.5 0  
0.2 -0.5 0  
0.225 -0.5 0  
0.25 -0.5 0  
0.275 -0.5 0  
0.3 -0.5 0  
0.325 -0.5 0  
0.35 -0.5 0  
0.375 -0.5 0  
0.4 -0.5 0  
0.425 -0.5 0  
0.45 -0.5 0  
0.475 -0.5 0  
0.5 -0.475 0  
0.5 -0.45 0  
0.5 -0.425 0  
0.5 -0.4 0  
0.5 -0.375 0  
0.5 -0.35 0  
0.5 -0.325 0  
0.5 -0.3 0  
0.5 -0.275 0  
0.5 -0.25 0  
0.5 -0.225 0  
0.5 -0.2 0  
0.5 -0.175 0  
0.5 -0.15 0  
0.5 -0.125 0  
0.5 -0.1 0  
0.5 -0.075 0  
0.5 -0.05 0  
0.5 -0.025 0  
0.5 -1.3761214e-12 0  
0.5 0.025 0  
0.5 0.05 0  
0.5 0.075 0  
0.5 0.1 0  
0.5 0.125 0  
0.5 0.15 0  
0.5 0.175 0  
0.5 0.2 0  
0.5 0.225 0  
0.5 0.25 0  
0.5 0.275 0  
0.5 0.3 0  
0.5 0.325 0  
0.5 0.35 0  
0.5 0.375 0  
0.5 0.4 0  
0.5 0.425 0  
0.5 0.45 0  
0.5 0.475 0  
0.475 0.5 0  
0.45 0.5 0  
0.425 0.5 0  
0.4 0.5 0  
0.375 0.5 0  
0.35 0.5 0  
0.325 0.5 0  
0.3 0.5 0  
0.275 0.5 0  
0.25 0.5 0  
0.225 0.5 0  
0.2 0.5 0  
0.175 0.5 0  
0.15 0.5 0  
0.125 0.5 0  
0.1 0.5 0  
0.075 0.5 0  
0.05 0.5 0  
0.025 0.5 0  
1.3761214e-12 0.5 0  
-0.025 0.5 0  
-0.05 0.5 0  
-0.075 0.5 0  
-0.1 0.5 0  
-0.125 0.5 0  
-0.15 0.5 0  
-0.175 0.5 0  
-0.2 0.5 0  
-0.225 0.5 0  
-0.25 0.5 0  
-0.275 0.5 0  
-0.3 0.5 0  
-0.325 0.5 0  
-0.35 0.5 0  
-0.375 0.5 0  
-0.4 0.5 0  
-0.425 0.5 0  
-0.45 0.5 0  
-0.475 0.5 0  
-0.5 0.475 0  
-0.5 0.45 0  
-0.5 0.425 0  
-0.5 0.4 0  
-0.5 0.375 0  
-0.5 0.35 0  
-0.5 0.325 0  
-0.5 0.3 0  
-0.5 0.275 0  
-0.5 0.25 0  
-0.5 0.225 0  
-0.5 0.2 0  
-0.5 0.175 0  
-0.5 0.15 0  
-0.5 0.125 0  
-0.5 0.1 0  
-0.5 0.075 0  
-0.5 0.05 0  
-0.5 0.025 0  
-0.5 1.3761214e-12 0  
-0.5 -0.025 0  
-0.5 -0.05 0  
-0.5 -0.075 0  
-0.5 -0.1 0  
-0.5 -0.125 0  
-0.5 -0.15 0  
-0.5 -0.175 0  
-0.5 -0.2 0  
-0.5 -0.225 0  
-0.5 -0.25 0  
-0.5 -0.275 0  
-0.5 -0.3 0  
-0.5 -0.325 0  
-0.5 -0.35 0  
-0.5 -0.375 0  
-0.5 -0.4 0  
-0.5 -0.425 0  
-0.5 -0.45 0  
-0.5 -0.475 0  
-0.002115384 -0.00023065208 0  
-0.20714286 -0.20714286 0  
0.20714286 -0.20714286 0  
0.20714286 0.20714286 0  
-0.20714286 0.20714286 0  
-0.28155318 -0.0017231192 0  
0.0017231192 -0.28155318 0  
0.28155318 0.0017231192 0  
-0.0017231192 0.28155318 0  
0.3319978 -0.33098683 0  
0.33098683 0.3319978 0  
-0.3319978 0.33098683 0  
-0.33098683 -0.3319978 0  
-0.14015679 -0.06698606 0  
0.06698606 -0.14015679 0  
0.14015679 0.06698606 0  
-0.06698606 0.14015679 0  
-0.1387125 -0.34573975 0  
0.34573975 -0.1387125 0  
0.1387125 0.34573975 0  
-0.34573975 0.1387125 0  
0.14046866 -0.34602854 0  
0.34602854 0.14046866 0  
-0.14046866 0.34602854 0  
-0.34602854 -0.14046866 0  
-0.05869875 -0.16617337 0  
0.18217777 -0.061504476 0  
0.062312964 0.18362015 0  
-0.18362015 0.062312964 0  
-0.034321424 -0.38563195 0  
0.38563195 -0.034321424 0  
0.034321424 0.38563195 0  
-0.38563195 0.034321424 0  
0.39586002 -0.2428538 0  
0.2428538 0.39586002 0  
-0.39586002 0.2428538 0  
-0.2428538 -0.39586002 0  
0.23688246 -0.38952246 0  
0.38952246 0.23688246 0  
-0.23688246 0.38952246 0  
-0.38952246 -0.23688246 0  
-0.24287231 -0.09948847 0  
0.09948847 -0.24287231 0  
0.24287231 0.09948847 0  
-0.09948847 0.24287231 0  
-0.11560815 -0.24300627 0  
0.24300627 -0.11560815 0  
0.11560815 0.24300627 0  
-0.24300627 0.11560815 0  
-0.40192315 -0.4008276 0  
0.4008276 -0.40192315 0  
0.40192315 0.4008276 0  
-0.4008276 0.40192315 0  
0.06409326 -0.40289903 0  
0.40289903 0.06409326 0  
-0.06409326 0.40289903 0  
-0.40289903 -0.06409326 0  
0.2962961 -0.23982804 0  
0.23982804 0.2962961 0  
-0.2962961 0.23982804 0  
-0.23982804 -0.2962961 0  
-0.28087237 -0.21196799 0  
0.21196799 -0.28087237 0  
0.28087237 0.21196799 0  
-0.21196799 0.28087237 0  
-0.0901279 0.007867504 0  
-0.05002927 -0.07494272 0  
0.0873353 -0.009871756 0  
0.0071518295 0.09216282 0  
-0.14120433 -0.1484696 0  
-0.14581114 0.13960092 0  
0.1458264 -0.14505939 0  
0.13960092 0.14581114 0  
0.41838804 -0.3182741 0  
0.3182741 0.41838804 0  
-0.41838804 0.3182741 0  
-0.3182741 -0.41838804 0  
0.32118136 -0.41712493 0  
0.41712493 0.32118136 0  
-0.32118136 0.41712493 0  
-0.41712493 -0.32118136 0  
-0.19707234 -0.014843048 0  
0.018050108 -0.20183705 0  
0.19707234 0.014843048 0  
-0.014843048 0.19707234 0  
-0.10938372 -0.41847488 0  
0.41847488 -0.10938372 0  
0.10938372 0.41847488 0  
-0.41847488 0.10938372 0  
0.15773043 -0.4267032 0  
0.4267032 0.15773043 0  
-0.15773043 0.4267032 0  
-0.4267032 -0.15773043 0  
-0.3204562 -0.07174808 0  
0.07174808 -0.3204562 0  
0.3204562 0.07174808 0  
-0.07174808 0.3204562 0  
0.02801032 -0.07269879 0  
-0.31817523 0.069836795 0  
-0.069836795 -0.31817523 0  
0.31817523 -0.069836795 0  
0.069836795 0.31817523 0  
0.43106207 -0.17757268 0  
0.17757268 0.43106207 0  
-0.43106207 0.17757268 0  
-0.17757268 -0.43106207 0  
0.0703783 0.071201205 0  
-0.051593844 0.064346604 0  
0.099701226 -0.08333426 0  
0.2863281 -0.17248559 0  
0.17248559 0.2863281 0  
-0.2863281 0.17248559 0  
-0.17248559 -0.2863281 0  
-0.2341888 0.04979648 0  
-0.049194112 -0.231281 0  
0.23358595 -0.04946041 0  
0.04979648 0.2341888 0  
-0.009939441 -0.13691185 0  
-0.26560438 -0.17864102 0  
0.17864102 -0.26560438 0  
0.26560438 0.17864102 0  
-0.17864102 0.26560438 0  
0.013302229 -0.43510666 0  
0.43510666 0.013302229 0  
-0.013302229 0.43510666 0  
-0.43510666 -0.013302229 0  
0.09432827 0.114700764 0  
-0.11539384 0.093188405 0  
-0.3413634 -0.005100272 0  
0.005100272 -0.3413634 0  
0.3413634 0.005100272 0  
-0.005100272 0.3413634 0  
-0.19817708 -0.3508856 0  
0.3508856 -0.19817708 0  
0.19817708 0.3508856 0  
-0.3508856 0.19817708 0  
-0.34100306 -0.27216324 0  
0.27216324 -0.34100306 0  
0.34100306 0.27216324 0  
-0.27216324 0.34100306 0  
-0.20269383 -0.14403741 0  
0.14393912 -0.2028372 0  
0.2026342 0.14393856 0  
-0.14393856 0.2026342 0  
-0.1030633 -0.10524017 0  
-0.4394695 -0.104853734 0  
0.104853734 -0.4394695 0  
0.4394695 0.104853734 0  
-0.104853734 0.4394695 0  
-0.44156647 -0.44156647 0  
0.44156647 -0.44156647 0  
0.44156647 0.44156647 0  
-0.44156647 0.44156647 0  
-0.2683254 -0.44465622 0  
0.44465622 -0.2683254 0  
0.2683254 0.44465622 0  
-0.44465622 0.2683254 0  
0.2654342 -0.4435478 0  
0.4435478 0.2654342 0  
-0.2654342 0.4435478 0  
-0.4435478 -0.2654342 0  
-0.27373606 -0.34534052 0  
0.34534052 -0.27373606 0  
0.27373606 0.34534052 0  
-0.34534052 0.27373606 0  
-0.05307205 -0.4481981 0  
0.4481981 -0.05307205 0  
0.05307205 0.4481981 0  
-0.4481981 0.05307205 0  
-0.35614902 -0.19390328 0  
0.19390328 -0.35614902 0  
0.35614902 0.19390328 0  
-0.19390328 0.35614902 0  
-0.14022674 -0.012452113 0  
0.14171903 0.011271359 0  
-0.01125192 0.14089845 0  
-0.19556868 -0.06932378 0  
0.070511825 -0.19668652 0  
0.19556868 0.06932378 0  
-0.06932378 0.19556868 0  
-0.24951252 -0.039742906 0  
0.04037078 -0.2503529 0  
0.24951252 0.039742906 0  
-0.039742906 0.24951252 0  
0.44100407 -0.36164257 0  
0.36164257 0.44100407 0  
-0.44100407 0.36164257 0  
-0.36164257 -0.44100407 0  
-0.4451273 -0.36589316 0  
0.36589316 -0.4451273 0  
0.4451273 0.36589316 0  
-0.36589316 0.4451273 0  
0.1121834 -0.30242515 0  
0.30242515 0.1121834 0  
-0.1121834 0.30242515 0  
-0.30242515 -0.1121834 0  
-0.115146436 -0.19087775 0  
0.19190264 -0.11309679 0  
0.11520548 0.19263776 0  
-0.19263776 0.11520548 0  
-0.08287991 -0.37025127 0  
0.37025127 -0.08287991 0  
0.08287991 0.37025127 0  
-0.37025127 0.08287991 0  
0.23791528 -0.24381089 0  
0.24381089 0.23791528 0  
-0.23791528 0.24381089 0  
-0.24381089 -0.23791528 0  
-0.44626984 -0.21174923 0  
0.21174923 -0.44626984 0  
0.44626984 0.21174923 0  
-0.21174923 0.44626984 0  
0.35174853 -0.37705234 0  
0.37705234 0.35174853 0  
-0.35174853 0.37705234 0  
-0.37705234 -0.35174853 0  
-0.048605647 -0.023262763 0  
-0.1551113 -0.21381997 0  
0.21381997 -0.1551113 0  
0.1551113 0.21381997 0  
-0.21381997 0.1551113 0  
-0.29403278 -0.30027482 0  
0.30027482 -0.29403278 0  
0.29403278 0.30027482 0  
-0.30027482 0.29403278 0  
0.12173745 -0.390654 0  
0.390654 0.12173745 0  
-0.12173745 0.390654 0  
-0.390654 -0.12173745 0  
-0.12236246 -0.2979882 0  
0.2979882 -0.12236246 0  
0.12236246 0.2979882 0  
-0.2979882 0.12236246 0  
-0.0945969 -0.046371013 0  
0.035276897 -0.027358124 0  
-0.0076714605 0.051946 0  
-0.30809116 -0.17165439 0  
0.17165439 -0.30809116 0  
0.30809116 0.17165439 0  
-0.17165439 0.30809116 0  
-0.16592422 -0.10879113 0  
0.10700909 -0.1687818 0  
0.16864619 0.10664837 0  
-0.10664837 0.16864619 0  
-0.16784625 -0.38069874 0  
0.38069874 -0.16784625 0  
0.16784625 0.38069874 0  
-0.38069874 0.16784625 0  
-0.4563872 -0.05993889 0  
0.05993889 -0.4563872 0  
0.4563872 0.05993889 0  
-0.05993889 0.4563872 0  
0.31103167 -0.37412483 0  
0.37412483 0.31103167 0  
-0.31103167 0.37412483 0  
-0.37412483 -0.31103167 0  
-0.3909646 -0.012754724 0  
0.012754724 -0.3909646 0  
0.3909646 0.012754724 0  
-0.012754724 0.3909646 0  
0.44915667 -0.21679194 0  
0.21679194 0.44915667 0  
-0.44915667 0.21679194 0  
-0.21679194 -0.44915667 0  
0.045831423 0.12033131 0  
-0.12662303 0.045442794 0  
-0.3107799 -0.37355793 0  
0.37355793 -0.3107799 0  
0.3107799 0.37355793 0  
-0.37355793 0.3107799 0  
0.04152367 0.021693805 0  
-0.08040017 -0.2675595 0  
0.26794365 -0.08044455 0  
0.080500565 0.2680441 0  
-0.2680441 0.080500565 0  
-0.13753757 -0.45578164 0  
0.45578164 -0.13753757 0  
0.13753757 0.45578164 0  
-0.45578164 0.13753757 0  
-0.05507968 -0.12135967 0  
0.14172421 -0.09428923 0  
0.2571752 -0.19664502 0  
[...]
POINT_DATA 2173 
SCALARS T float 
LOOKUP_TABLE default 
1.8126933214892172e-19 
2.438557338887921e-20 
1.6529236396231087e-17 
-1.6996033519039207e-20 
-1.3725918925498755e-18 
3.819713150645768e-18 
1.5601565750433637e-17 
7.235543801844536e-18 
1.1707616203657988e-17 
2.126551727020651e-18 
1.008062544581276e-17 
1.2007621278198503e-17 
-5.426932497807274e-17 
3.6546622922486434e-17 
-4.632967812855056e-17 
1.576505704962367e-17 
8.044649687502141e-19 
3.5190597217735167e-17 
-1.892985664725506e-17 
3.1923072026536117e-17 
-2.848844507136648e-17 
7.53522555818389e-18 
6.318976695909284e-18 
2.8030816315859833e-18 
-1.667015026886424e-17 
3.535192601932732e-17 
-5.483406905146395e-17 
6.081488796319982e-17 
-9.173592775041357e-17 
-5.2486924993845156e-17 
9.858806398522227e-17 
-1.8016272378644863e-16 
1.5615625362147135e-16 
-6.799053333933256e-17 
9.62976857047883e-17 
1.0647364791608044e-16 
8.860354185819031e-17 
5.971556653928752e-17 
-8.554270641417655e-17 
-1.1379635236052127e-16 
-1.300599469844473e-18 
-2.3358797427627904e-17 
1.8341338987686794e-17 
-2.557492367360669e-17 
-4.023176183893166e-17 
-4.385036056378279e-17 
3.0080611217860375e-18 
1.095170497134828e-16 
1.7380347843531034e-16 
3.073626041573199e-16 
1.5188370642266537e-16 
-7.498360760161832e-17 
2.87268756673698e-16 
-3.728028041642629e-16 
1.6617214646797334e-16 
-1.6306709566822037e-16 
-1.1185026979983042e-16 
-5.1224029094194594e-17 
-1.1227832374379122e-16 
-3.639469913751241e-16 
-1.6297996760404611e-16 
5.06357359275519e-16 
-3.4130382811581287e-16 
1.4829741745555152e-16 
1.1257868757059498e-16 
-8.688914678759464e-16 
1.7020000277459345e-15 
-4.091081660078358e-16 
8.457438488064567e-16 
-2.9253927134871795e-16 
2.895326931726734e-16 
2.739188901952033e-16 
-1.3069777868819994e-16 
1.4795330216452602e-17 
3.5638896790554866e-16 
2.854986087454819e-16 
-2.2208815414248563e-16 
-8.497237888815725e-17 
-4.9931897350453446e-17 
3.7459982217927108e-19 
-6.542474340097026e-17 
-2.300238235239088e-16 
2.459139170396267e-16 
-6.882949698054282e-17 
1.0004690548624941e-16 
-1.9121074618690224e-16 
-1.4388713275712246e-16 
-1.4950351257670538e-16 
5.176302917975574e-16 
4.195922320787512e-16 
1.4846044156871678e-15 
-3.5824783974516075e-16 
2.032154548964127e-16 
-2.051322799273855e-16 
-1.0343805740667931e-17 
2.475595597394175e-16 
-3.7218904373230675e-16 
4.754577483942342e-16 
-3.5453789094691587e-16 
5.555643831831787e-17 
4.579758207570138e-16 
-7.811079869966478e-16 
6.629991671940383e-16 
-4.67054890333208e-16 
4.998814757990752e-17 
-2.617186723159085e-17 
-1.2435462182670206e-17 
-2.6585117254347406e-17 
-6.843387175092548e-18 
-5.36759142349986e-18 
-2.378178390755718e-18 
3.4121581282049247e-18 
1.6547165314905575e-18 
-1.5143819412228646e-19 
1.8163868697550367e-18 
3.8678936937598226e-19 
-1.5930076466651022e-18 
-2.0207845236919038e-18 
-4.6338817533510716e-20 
-1.1021806492114818e-18 
1.0110837557620987e-18 
-1.0458345081086866e-18 
9.01409169302273e-19 
7.020285525379007e-19 
1.7138404792576865e-18 
2.1929405369043387e-18 
1.1584931401008112e-18 
2.7284232622497263e-18 
-1.113205642678213e-18 
-2.5100053038527112e-18 
2.9367910753590123e-18 
-1.595366725319908e-18 
-5.990170412984266e-19 
1.6673949306273698e-18 
-3.1345979792107034e-18 
3.9062927017829886e-18 
-1.8294329735603886e-18 
-2.9011298800781405e-19 
1.671009594310354e-18 
-4.1859469773892414e-19 
1.3785617976348488e-18 
-2.0504952413567735e-18 
3.0082076561995746e-18 
-2.738447470518491e-18 
-9.306280405001864e-18 
-1.4691123812210284e-18 
-3.4911403247434503e-19 
-7.334188664881305e-18 
7.49766398982583e-18 
-1.0556153192934704e-17 
7.158063511204349e-18 
4.552660742104806e-19 
-1.1683389372693422e-17 
-7.291038287143547e-18 
-5.487325284528907e-18 
-9.981328068773556e-18 
-8.729078226305977e-18 
-5.7648577250630855e-18 
-3.473315624183621e-18 
2.2823432265772093e-18 
6.329118147174093e-6 
2.893017472107172e-5 
6.703178761040392e-6 
0.0025049271491380124 
0.00022099012234016492 
3.819635159758764e-6 
-5.225886043590433e-5 
5.9202157023182875e-5 
0.5354209885436335 
3.985254275358486e-5 
0.00024856457689213324 
-5.16378183390029e-7 
-3.1370482205851174e-6 
1.0674731046246028e-5 
-2.5329954102747418e-5 
0.000694344296098472 
0.04176391427591955 
4.3655985890090955e-5 
-0.00014689915685296912 
0.008172862940530516 
-1.4534728849942787e-6 
-0.00013532331496087026 
-7.952125548276105e-5 
0.004776733724390677 
1.2058200120174396e-5 
1.4939330171411549e-6 
0.00032812536263040804 
0.18789419502626142 
-1.9682479419764454e-6 
8.506284319691117e-6 
0.00027909503860778243 
0.02240631025312755 
1.4425810889196306e-6 
-0.0003272713719446145 
-0.000852373725856056 
-1.1876634994062653e-6 
-1.0147613176973475e-5 
-2.0736196526625878e-5 
-0.000564591812478873 
5.91737112118998e-6 
-6.3308637508071206e-6 
7.035831915199725e-8 
0.00014433315663138773 
0.0010322818028418938 
0.1312498543218492 
-1.1750992171244488e-5 
-0.00047365177488208575 
0.08607336811072014 
-2.6293346235902743e-6 
3.645973688969654e-7 
3.769006311147073e-5 
-0.0004857594796804178 
-9.654879258583352e-7 
2.6408147916438343e-5 
-0.0006514041211929688 
0.00479816895912554 
4.818559642626921e-6 
-6.156938313772862e-5 
0.0005310103866638853 
-3.97746193742537e-7 
1.782108611856744e-5 
-4.43411131522252e-6 
-6.13983315255443e-5 
0.0004915744842706105 
0.0001613220522453326 
2.4324797235264736e-6 
-1.2910991714253398e-5 
-0.0006457243446222404 
0.009323642702284021 
7.85830104665774e-6 
0.002102985590626489 
2.3620581266160548e-5 
0.006738550070743883 
-8.71996498448875e-6 
-0.0007803217730512977 
-3.8990503815568315e-7 
3.6869325350676726e-6 
8.363238306679011e-5 
0.0004946317706908878 
8.575303233087673e-7 
-1.1504472516577603e-6 
-6.81940935564944e-7 
-6.633050168078955e-6 
-0.0006701362626599067 
0.3831001920391406 
-2.0486899000165384e-5 
-4.492103149663877e-5 
0.00038742953131657245 
-1.7555961735921791e-6 
0.00010320662957227276 
0.00019987485239228895 
-9.758119935255763e-5 
-1.11962116933977e-5 
2.5399844617730113e-6 
-0.00012582415493383474 
-0.00013919335413316045 
0.12182531704986822 
-0.00012224853184036817 
5.767027152639595e-6 
-1.1498074490976912e-5 
-5.476059680450751e-5 
0.1490822383954105 
-0.0002942709540002976 
-4.2487195573923445e-5 
-1.9163133512937917e-6 
-2.461309840696535e-5 
0.0012089204255254996 
0.001168617110764901 
0.0001619319241236902 
-0.00035149650328779704 
0.008036746340652458 
-4.5116519996274504e-7 
7.3646220413989334e-6 
2.703164067449501e-6 
-3.946189001222385e-5 
9.750249402209851e-5 
0.45278528525712974 
-2.493032777710511e-5 
6.371803433645535e-6 
7.465066455654337e-6 
0.0013549130767418283 
0.003749434165097634 
5.00671248069241e-6 
-0.00014432511048591311 
0.0003633074914728073 
-2.988000250190329e-6 
0.005541239072000561 
0.0008232502175255407 
2.0262132447685837e-6 
-7.50218116621924e-6 
0.0004028466203646742 
0.15503833108334542 
3.88887895283296e-5 
-0.00010316810154702567 
-0.00020055736318413134 
-2.7698280728066556e-6 
6.273687106176274e-6 
-2.5916401023257857e-6 
-0.0006175344761571658 
-2.5519304197242174e-6 
5.493379071291531e-6 
-0.00015978880219412323 
0.00014503095705486677 
0.017978711390354844 
-1.3365312943022009e-5 
-4.1231521169863005e-6 
5.805168863098012e-5 
0.0004995364846970815 
-4.6812022487378826e-5 
-8.317915442719458e-8 
-4.10844545863643e-6 
-0.00021845981511452563 
-1.5661381630430376e-7 
-4.871240376672399e-6 
-0.0002121071708849179 
-0.000629622905876517 
-1.299892509985643e-6 
-1.118516946609504e-5 
0.00011500443993758786 
4.667489152397543e-6 
2.8887028116907174e-6 
9.199211690324749e-6 
-0.00018689117019321785 
-0.00047083094919761324 
1.5901589691265237e-7 
6.04614108642838e-6 
0.000258299762331717 
0.0006388021148684837 
-5.425455248092649e-7 
3.933324921225827e-7 
0.00012308860460316493 
0.0013330533598674605 
-3.083413065856777e-5 
4.858882754169252e-6 
-0.0002428855475410557 
0.08499292227319422 
-3.868537828878513e-6 
-9.516364016530194e-5 
-0.00027722788832716867 
0.1787014308082794 
1.0280260646068852e-6 
-3.881970733925447e-5 
-0.00042620120388027184 
0.48214422192841366 
6.304414567499416e-5 
2.8337362209849025e-5 
-1.92548215477058e-6 
-9.609358087582593e-6 
-8.71800409923781e-8 
-4.0985336814524277e-7 
-0.0002322647356367632 
-5.840123472856232e-7 
0.00014901056023376277 
0.0013308502147590972 
0.054846660592372525 
6.972151042301689e-7 
8.485683429412778e-6 
4.177349958174315e-5 
0.055408527507189595 
-3.034943272762123e-5 
-6.438182390224842e-6 
-3.255735540245078e-5 
0.018630735531814012 
1.3215935582738104e-7 
-5.227934602342327e-5 
0.00032441245162677173 
-4.6457947212221127e-5 
-1.9023883538950055e-5 
-2.579330626827007e-6 
-2.2700163506363542e-5 
0.00019381269800034458 
3.875731803238382e-6 
-0.00013975572145510657 
0.00042251061024895 
5.398703977680576e-7 
4.98465618127141e-6 
2.830956124724982e-6 
-1.7302595026369595e-5 
4.718921590511523e-5 
0.014482697572828386 
8.480610799299424e-8 
2.9412914250930303e-6 
3.1274205122769674e-5 
-9.624918463994043e-5 
-1.1056195969110265e-6 
3.615761130675371e-5 
-0.000587914105721888 
0.0010834880873639642 
-3.22106890704405e-6 
3.210478215234992e-5 
-0.00022953748696123786 
0.0457076840100269 
-2.1524263081905897e-6 
-4.211886203327773e-6 
-7.013406447847852e-5 
0.00047543017445799096 
1.999578153363895e-6 
7.5256877031118e-5 
0.0016094463085749486 
0.00275531577317805 
-6.063897538453265e-6 
0.00017866533270171999 
0.0002471680363698998 
0.03492440293061354 
-1.731390827060969e-5 
9.388301373988602e-7 
0.0014096348528834176 
-9.03837510870223e-7 
2.3494383149919207e-6 
6.643755159742942e-6 
-0.0005003684977342988 
-0.00020052494193221803 
4.1325256228316974e-5 
-9.218114739955066e-6 
4.359958144547382e-7 
-4.520699825516917e-6 
1.079274574934255e-6 
0.00011292764036757552 
0.0002814161948831555 
0.019982601773434795 
-2.0522970243131772e-5 
-2.6612480726024216e-5 
-1.263551406373624e-6 
2.8799826326420185e-5 
0.027611820427135562 
-2.2689946942257205e-6 
1.474726763749669e-5 
-0.0002664382711296339 
-0.00047516683382541514 
2.9163779339891686e-7 
-0.00017266916895922996 
1.343085846083253e-5 
5.522217337001613e-5 
0.2504899928014464 
-6.936973646095747e-7 
1.3551419987708895e-5 
3.339156292504865e-5 
-0.0002671162916064038 
-3.3380436754190338e-6 
-3.5347664055454815e-5 
0.00016438746001007387 
0.00020028265548149282 
0.0020655422053856088 
-1.8495250404910902e-5 
-1.3068244209220974e-6 
0.0002715217676550009 
-7.683921309295722e-7 
-8.065844696241603e-6 
-0.00013281159972150524 
0.00031260802687564193 
-1.7903752761012206e-7 
-0.00012594124936418695 
0.00047495583366166986 
-3.5674775459718262e-6 
-2.6608677300932187e-5 
-2.8018802850516796e-5 
-0.00021310498681187366 
6.813432453668799e-7 
-2.6847735300930436e-6 
0.00024930407599849314 
0.01395872357627171 
-9.237300758337232e-7 
-0.00013749263334635493 
7.424500656088376e-6 
0.22345168099686863 
1.6431330711132242e-5 
-6.966622010999175e-5 
1.2009814942390735e-5 
2.0444090785287558e-5 
-7.218505565471941e-5 
0.40372291627130236 
2.6317011237390922e-6 
-7.418315401488277e-6 
-7.980853151008505e-5 
0.00020222353862131982 
0.6202336368708167 
-5.612366450544854e-6 
0.00016587653537755736 
0.00015423104904831972 
-1.1269966112088996e-5 
-0.00011417293243917475 
-4.162300185021105e-5 
-7.892029685682037e-5 
0.0006510981893591609 
-0.00010686448423327239 
-3.1169143370148718e-6 
-4.331345632734534e-6 
-0.00010220551580412129 
-0.0001850853099956877 
-5.456696747447538e-7 
1.272070580606012e-5 
1.8305350002036225e-6 
4.775469971753239e-5 
-0.00012033583484134438 
0.11471906920336059 
3.596340108043688e-5 
0.000132025403244838 
0.0003778633674296291 
-1.0455399466267996e-6 
6.762234297215047e-5 
-4.1483491286961514e-5 
0.07609868455148772 
-2.789235398895128e-6 
-2.9152244647340035e-6 
8.01456317824415e-5 
-8.320019273876655e-5 
0.02513005479364294 
5.615657717872753e-6 
0.001477746773336622 
-0.00010116532132379769 
0.003109038641516326 
-4.690923703809606e-5 
-0.00022967851874339926 
-8.684853149409706e-7 
-2.3245468057687622e-6 
2.2923406717063735e-5 
-0.0004689222093968744 
0.004952480593637128 
6.931471893792556e-7 
9.261284840807784e-6 
9.437731444280543e-5 
0.0005497637424981073 
-5.967941720267279e-7 
-4.158727280395785e-6 
5.466065279827386e-5 
3.6533493319959065e-5 
3.2433038439058323e-6 
5.453905974239382e-6 
-0.00016769938390577088 
-2.482154402265195e-7 
-6.896388891239669e-6 
-1.4688106674282159e-5 
-2.221541292227789e-5 
-9.47247609339917e-9 
-6.891462688521442e-7 
2.8562580827891716e-6 
3.5975091828985395e-5 
-0.00037217658536875536 
0.4122074064030108 
-3.4946887798930254e-6 
0.0007883779083574102 
0.16406314661477328 
0.036316774135467106 
5.6498992708552155e-5 
1.092255136628727e-6 
-8.826156839133549e-5 
-0.00012842494767294094 
0.28933152904835524 
-2.238642122830827e-6 
7.98293434157757e-5 
0.00028623152152747335 
0.003451034208662678 
-0.0002446495792040663 
3.3875261919383613e-6 
6.184539021927409e-5 
-0.0009835179394840016 
0.000692371362414629 
0.00010307055234704747 
-0.00021808130366820025 
-2.987605799479812e-7 
7.797680957815062e-6 
0.0011496431172533371 
1.0407919468087728e-5 
-0.00018123925442757745 
0.002310760073537073 
0.07366204503456546 
-1.9431930360710646e-5 
-0.0003133552624685214 
-0.0005052085264825026 
2.2894882921540924e-6 
-0.00024534412065204905 
0.016770828492687316 
-1.1295344127769622e-5 
1.369003618337491e-5 
0.00024049690372622207 
0.004231622579879845 
-8.307763188814255e-6 
-0.001102579203933529 
-2.164646571042367e-5 
-3.7577188147835354e-6 
-3.4401496880656914e-6 
1.0237048211318591e-5 
-0.00023404735811378697 
0.03360884613267465 
4.727662221539943e-7 
-2.4906222487396804e-5 
-0.0003442325952718411 
-4.5325195452550734e-5 
2.9621329607644682e-5 
0.000136070465641781 
0.21678324634367058 
2.5816049034501024e-6 
1.4649123694640358e-5 
0.000293865070191134 
-1.4124110804353527e-6 
-5.314204564410784e-6 
1.4563204938240485e-5 
-8.361676869324943e-6 
-0.0003985412738078839 
1.752197166958215e-6 
1.9407485617079207e-6 
4.60918185012123e-6 
0.0025912320681845745 
-1.7611334598240395e-6 
-1.4685107432421961e-5 
3.353437052087438e-5 
0.0017299980950563217 
1.0245016023153424e-7 
0.002617612563413045 
0.008691291962981686 
-7.151072773321775e-5 
-0.0009040336795927922 
1.1285343819902417e-5 
-3.998409965765845e-6 
-2.4190566892360797e-6 
4.469279457472161e-6 
-8.383774153551457e-5 
3.276106785515824e-7 
-1.2144735722636469e-5 
-0.0001725983029102712 
0.0008077379948319959 
0.025029415335966827 
-9.49239821893577e-7 
-2.3172826616658814e-5 
0.19422106498287645 
9.430188229581302e-5 
-0.00011889834489732077 
1.8477891247646156e-5 
-0.0003698616407455971 
0.0005286125177237081 
1.4276917284819692e-7 
4.6130934629491036e-5 
-6.928674130605282e-6 
-0.0001578397911463006 
-0.00036850528950003775 
-7.801274749536291e-7 
-4.1408015401291645e-5 
0.004149956745280495 
0.004077350392100171 
-4.374951462013662e-6 
3.964716696489862e-5 
0.0002664240859037357 
0.0033780157738635664 
2.753784844034916e-6 
7.525814295533578e-6 
1.746326872993185e-5 
-1.815512710828744e-5 
0.0003541767395757812 
-0.0004929990104819785 
0.0002956694378295926 
0.002803857694939906 
0.02160056693148354 
0.012459942936363903 
0.0002460530060339942 
-1.4721140315890827e-5 
0.000169173528115815 
-4.804468300549226e-6 
-2.0815477256519765e-5 
1.6511415305689647e-5 
0.00028014032633190297 
-0.000271987210107462 
-0.00020889206000644628 
0.44842202950962523 
0.2881221093651154 
0.32417677222631286 
-2.7480074349876682e-6 
1.7808861284242121e-6 
-2.89923509420345e-6 
-2.684252518584332e-6 
5.493783824186241e-6 
0.0017660300737843302 
0.00017494800212168615 
-0.00016122382037381594 
8.986638739374557e-7 
0.003937075385479591 
0.014508829429342654 
-4.240469007718684e-6 
-5.880385219005734e-6 
-2.030681914344532e-6 
-2.170287192135711e-5 
0.00042879880629863114 
-8.902211931667446e-5 
0.3270812172480819 
0.2190622719663244 
0.0028245305290113504 
0.017299085836940793 
0.006837912846608475 
-1.5017580625762565e-7 
1.27173317197326e-5 
-1.2512439490124826e-5 
-6.603308268477667e-6 
-6.723111815495752e-7 
1.0682671348136502e-5 
-5.935908914277741e-6 
1.0023607857466612e-5 
-1.6680577403030468e-5 
-5.589736297198669e-5 
0.00019888018910714644 
0.0006885309997398594 
-0.00010613953633542421 
7.148961878110675e-5 
-4.2173896289333236e-7 
-2.442086060655381e-6 
1.124152791530555e-6 
3.2439305622801037e-6 
5.534011977059705e-6 
-3.804951782574113e-5 
7.15334821638674e-5 
-3.888017786158994e-5 
3.871673314589569e-5 
-4.80805388983255e-7 
1.2917752236007955e-6 
7.271401492710047e-6 
3.658665647605082e-6 
0.00013298358745915704 
-1.0074374962123619e-5 
1.4252787268748868e-5 
-0.00012447834592050442 
1.0698697790074974e-6 
8.851957682222814e-7 
5.610665651082477e-7 
-3.6370987509961084e-6 
-4.4916423874849935e-8 
5.5636704491061374e-5 
-8.973229744950524e-7 
-2.2929768031062617e-5 
0.00019714430566885886 
-0.000409386916587741 
-0.00031078287845080093 
0.5060833111119413 
0.30189719659685404 
0.3300586301976033 
-1.4499433077327864e-5 
7.016693279666081e-5 
7.415901023257471e-5 
0.0006651458704793878 
-0.00034382799133521547 
0.00013685856664523367 
-1.36263279629006e-6 
8.421237502932682e-7 
-7.318188410512424e-7 
-2.3804617970220315e-5 
8.2314458719922e-6 
6.6969959855878685e-6 
-4.2911205553281945e-5 
9.960772337717184e-5 
-3.1786851719238056e-5 
-0.00023859915238231744 
0.00026915578166477873 
4.610556648891274e-6 
2.8735834580237343e-7 
-1.0888656918254313e-6 
-7.481645955525429e-7 
5.34450783888791e-6 
-9.436911909094822e-6 
-1.8159249368465271e-6 
1.3285922729090641e-5 
0.00011271040121319697 
-0.00014252867495667478 
1.066014819057532e-6 
1.3709295914426692e-5 
0.00010534896909225148 
-1.274870214023345e-6 
-3.1739405750030185e-6 
8.595999661824696e-5 
-5.18580007303597e-5 
0.00022368581419686533 
-0.00012660026716403508 
6.7769328197232865e-6 
2.149898946058802e-6 
-2.8526211468590014e-6 
3.6378424381975117e-6 
3.787413190463931e-6 
3.860087343484815e-6 
-5.632787949511283e-6 
2.435263072903771e-6 
6.227660533649494e-6 
-3.386599649174504e-6 
-3.274620011649273e-5 
0.00010942941642761681 
-0.00040341319673968637 
3.6207263328378556e-7 
1.2325024071543306e-7 
-6.090572512653481e-6 
1.2551106503925234e-5 
-1.8694286367357478e-5 
4.212622119334647e-5 
-0.00019778856156377393 
4.014816596388269e-5 
-1.2993689611191441e-7 
1.1731466742393372e-6 
-9.608000893795048e-7 
1.088063928609694e-6 
-2.965628879296696e-5 
-4.983340403434985e-6 
0.00011390403686801175 
0.00045217388776231125 
0.25109265154950405 
0.147430351597112 
9.907206385672756e-6 
-4.447171156477031e-6 
-6.5350465270266e-6 
-4.511393134541276e-5 
4.016251088611433e-6 
6.006678545895183e-5 
-0.001141394868491258 
0.0004122105294323654 
0.0014451015804525919 
2.6705238376561478e-6 
3.0512188664872707e-6 
-2.913902270005694e-6 
0.008111351851148843 
0.0007897792374036473 
-2.918185637073071e-5 
-6.162046576834131e-6 
-0.0003079803487647043 
0.0002139561712407087 
-0.0003248797186004991 
0.0001504376308986253 
-1.583146984707991e-6 
5.803522397827239e-7 
-2.6826107911989312e-5 
7.620908238038759e-5 
-0.00012457860117729062 
0.0009663489587863968 
-0.0001064156512320307 
-0.0009711491030131173 
0.0002230949680488262 
0.0006799988804382775 
9.518326570021823e-7 
4.349795129100339e-6 
-2.4709020251973044e-6 
6.0671600291695615e-6 
6.228148850288381e-5 
0.00015452133958197392 
-0.00015281891536334156 
0.0002666250246236479 
3.760646218766007e-5 
-0.0001502537493904079 
6.599238701143284e-7 
7.916476661413869e-7 
7.758693719507108e-7 
-3.2361566495212467e-7 
1.0493595910923225e-5 
1.5818234791010178e-5 
8.350961922651754e-6 
-3.2114917350318762e-6 
3.8153061861745785e-6 
-4.534646234265219e-6 
-0.000367478007608603 
0.0004838822656267516 
1.2112586342441488e-6 
5.056500432494932e-7 
1.729704385274566e-5 
1.814141902973176e-5 
-9.176811570475331e-6 
-1.6500072599852048e-5 
0.00014062850986521286 
0.00011817360614119532 
0.00015787401027306174 
0.00017261213185902947 