# vtk DataFile Version 3.0 
Unstructured Grid 
ASCII 
DATASET UNSTRUCTURED_GRID
POINTS 2173 float 
-0.5 -0.5 0  
0.5 -0.5 0  
0.5 0.5 0  
-0.5 0.5 0  
-0.475 -0.5 0  
-0.45 -0.5 0  
-0.425 -0.5 0  
-0.4 -0.5 0  
-0.375 -0.5 0  
-0.35 -0.5 0  
-0.325 -0.5 0  
-0.3 -0.5 0  
-0.275 -0.5 0  
-0.25 -0.5 0  
-0.225 -0.5 0  
-0.2 -0.5 0  
-0.175 -0.5 0  
-0.15 -0.5 0  
-0.125 -0.5 0  
-0.1 -0.5 0  
-0.075 -0.5 0  
-0.05 -0.5 0  
-0.025 -0.5 0  
-1.3761214e-12 -0.5 0  
0.025 -0.5 0  
0.05 -0.5 0  
0.075 -0.5 0  
0.1 -0.5 0  
0.125 -0.5 0  
0.15 -0.5 0  
0.175 -0.5 0  
0.2 -0.5 0  
0.225 -0.5 0  
0.25 -0.5 0  
0.275 -0.5 0  
0.3 -0.5 0  
0.325 -0.5 0  
0.35 -0.5 0  
0.375 -0.5 0  
0.4 -0.5 0  
0.425 -0.5 0  
0.45 -0.5 0  
0.475 -0.5 0  
0.5 -0.475 0  
0.5 -0.45 0  
0.5 -0.425 0  
0.5 -0.4 0  
0.5 -0.375 0  
0.5 -0.35 0  
0.5 -0.325 0  
0.5 -0.3 0  
0.5 -0.275 0  
0.5 -0.25 0  
0.5 -0.225 0  
0.5 -0.2 0  
0.5 -0.175 0  
0.5 -0.15 0  
0.5 -0.125 0  
0.5 -0.1 0  
0.5 -0.075 0  
0.5 -0.05 0  
0.5 -0.025 0  
0.5 -1.3761214e-12 0  
0.5 0.025 0  
0.5 0.05 0  
0.5 0.075 0  
0.5 0.1 0  
0.5 0.125 0  
0.5 0.15 0  
0.5 0.175 0  
0.5 0.2 0  
0.5 0.225 0  
0.5 0.25 0  
0.5 0.275 0  
0.5 0.3 0  
0.5 0.325 0  
0.5 0.35 0  
0.5 0.375 0  
0.5 0.4 0  
0.5 0.425 0  
0.5 0.45 0  
0.5 0.475 0  
0.475 0.5 0  
0.45 0.5 0  
0.425 0.5 0  
0.4 0.5 0  
0.375 0.5 0  
0.35 0.5 0  
0.325 0.5 0  
0.3 0.5 0  
0.275 0.5 0  
0.25 0.5 0  
0.225 0.5 0  
0.2 0.5 0  
0.175 0.5 0  
0.15 0.5 0  
0.125 0.5 0  
0.1 0.5 0  
0.075 0.5 0  
0.05 0.5 0  
0.025 0.5 0  
1.3761214e-12 0.5 0  
-0.025 0.5 0  
-0.05 0.5 0  
-0.075 0.5 0  
-0.1 0.5 0  
-0.125 0.5 0  
-0.15 0.5 0  
-0.175 0.5 0  
-0.2 0.5 0  
-0.225 0.5 0  
-0.25 0.5 0  
-0.275 0.5 0  
-0.3 0.5 0  
-0.325 0.5 0  
-0.35 0.5 0  
-0.375 0.5 0  
-0.4 0.5 0  
-0.425 0.5 0  
-0.45 0.5 0  
-0.475 0.5 0  
-0.5 0.475 0  
-0.5 0.45 0  
-0.5 0.425 0  
-0.5 0.4 0  
-0.5 0.375 0  
-0.5 0.35 0  
-0.5 0.325 0  
-0.5 0.3 0  
-0.5 0.275 0  
-0.5 0.25 0  
-0.5 0.225 0  
-0.5 0.2 0  
-0.5 0.175 0  
-0.5 0.15 0  
-0.5 0.125 0  
-0.5 0.1 0  
-0.5 0.075 0  
-0.5 0.05 0  
-0.5 0.025 0  
-0.5 1.3761214e-12 0  
-0.5 -0.025 0  
-0.5 -0.05 0  
-0.5 -0.075 0  
-0.5 -0.1 0  
-0.5 -0.125 0  
-0.5 -0.15 0  
-0.5 -0.175 0  
-0.5 -0.2 0  
-0.5 -0.225 0  
-0.5 -0.25 0  
-0.5 -0.275 0  
-0.5 -0.3 0  
-0.5 -0.325 0  
-0.5 -0.35 0  
-0.5 -0.375 0  
-0.5 -0.4 0  
-0.5 -0.425 0  
-0.5 -0.45 0  
-0.5 -0.475 0  
-0.002115384 -0.00023065208 0  
-0.20714286 -0.20714286 0  
0.20714286 -0.20714286 0  
0.20714286 0.20714286 0  
-0.20714286 0.20714286 0  
-0.28155318 -0.0017231192 0  
0.0017231192 -0.28155318 0  
0.28155318 0.0017231192 0  
-0.0017231192 0.28155318 0  
0.3319978 -0.33098683 0  
0.33098683 0.3319978 0  
-0.3319978 0.33098683 0  
-0.33098683 -0.3319978 0  
-0.14015679 -0.06698606 0  
0.06698606 -0.14015679 0  
0.14015679 0.06698606 0  
-0.06698606 0.14015679 0  
-0.1387125 -0.34573975 0  
0.34573975 -0.1387125 0  
0.1387125 0.34573975 0  
-0.34573975 0.1387125 0  
0.14046866 -0.34602854 0  
0.34602854 0.14046866 0  
-0.14046866 0.34602854 0  
-0.34602854 -0.14046866 0  
-0.05869875 -0.16617337 0  
0.18217777 -0.061504476 0  
0.062312964 0.18362015 0  
-0.18362015 0.062312964 0  
-0.034321424 -0.38563195 0  
0.38563195 -0.034321424 0  
0.034321424 0.38563195 0  
-0.38563195 0.034321424 0  
0.39586002 -0.2428538 0  
0.2428538 0.39586002 0  
-0.39586002 0.2428538 0  
-0.2428538 -0.39586002 0  
0.23688246 -0.38952246 0  
0.38952246 0.23688246 0  
-0.23688246 0.38952246 0  
-0.38952246 -0.23688246 0  
-0.24287231 -0.09948847 0  
0.09948847 -0.24287231 0  
0.24287231 0.09948847 0  
-0.09948847 0.24287231 0  
-0.11560815 -0.24300627 0  
0.24300627 -0.11560815 0  
0.11560815 0.24300627 0  
-0.24300627 0.11560815 0  
-0.40192315 -0.4008276 0  
0.4008276 -0.40192315 0  
0.40192315 0.4008276 0  
-0.4008276 0.40192315 0  
0.06409326 -0.40289903 0  
0.40289903 0.06409326 0  
-0.06409326 0.40289903 0  
-0.40289903 -0.06409326 0  
0.2962961 -0.23982804 0  
0.23982804 0.2962961 0  
-0.2962961 0.23982804 0  
-0.23982804 -0.2962961 0  
-0.28087237 -0.21196799 0  
0.21196799 -0.28087237 0  
0.28087237 0.21196799 0  
-0.21196799 0.28087237 0  
-0.0901279 0.007867504 0  
-0.05002927 -0.07494272 0  
0.0873353 -0.009871756 0  
0.0071518295 0.09216282 0  
-0.14120433 -0.1484696 0  
-0.14581114 0.13960092 0  
0.1458264 -0.14505939 0  
0.13960092 0.14581114 0  
0.41838804 -0.3182741 0  
0.3182741 0.41838804 0  
-0.41838804 0.3182741 0  
-0.3182741 -0.41838804 0  
0.32118136 -0.41712493 0  
0.41712493 0.32118136 0  
-0.32118136 0.41712493 0  
-0.41712493 -0.32118136 0  
-0.19707234 -0.014843048 0  
0.018050108 -0.20183705 0  
0.19707234 0.014843048 0  
-0.014843048 0.19707234 0  
-0.10938372 -0.41847488 0  
0.41847488 -0.10938372 0  
0.10938372 0.41847488 0  
-0.41847488 0.10938372 0  
0.15773043 -0.4267032 0  
0.4267032 0.15773043 0  
-0.15773043 0.4267032 0  
-0.4267032 -0.15773043 0  
-0.3204562 -0.07174808 0  
0.07174808 -0.3204562 0  
0.3204562 0.07174808 0  
-0.07174808 0.3204562 0  
0.02801032 -0.07269879 0  
-0.31817523 0.069836795 0  
-0.069836795 -0.31817523 0  
0.31817523 -0.069836795 0  
0.069836795 0.31817523 0  
0.43106207 -0.17757268 0  
0.17757268 0.43106207 0  
-0.43106207 0.17757268 0  
-0.17757268 -0.43106207 0  
0.0703783 0.071201205 0  
-0.051593844 0.064346604 0  
0.099701226 -0.08333426 0  
0.2863281 -0.17248559 0  
0.17248559 0.2863281 0  
-0.2863281 0.17248559 0  
-0.17248559 -0.2863281 0  
-0.2341888 0.04979648 0  
-0.049194112 -0.231281 0  
0.23358595 -0.04946041 0  
0.04979648 0.2341888 0  
-0.009939441 -0.13691185 0  
-0.26560438 -0.17864102 0  
0.17864102 -0.26560438 0  
0.26560438 0.17864102 0  
-0.17864102 0.26560438 0  
0.013302229 -0.43510666 0  
0.43510666 0.013302229 0  
-0.013302229 0.43510666 0  
-0.43510666 -0.013302229 0  
0.09432827 0.114700764 0  
-0.11539384 0.093188405 0  
-0.3413634 -0.005100272 0  
0.005100272 -0.3413634 0  
0.3413634 0.005100272 0  
-0.005100272 0.3413634 0  
-0.19817708 -0.3508856 0  
0.3508856 -0.19817708 0  
0.19817708 0.3508856 0  
-0.3508856 0.19817708 0  
-0.34100306 -0.27216324 0  
0.27216324 -0.34100306 0  
0.34100306 0.27216324 0  
-0.27216324 0.34100306 0  
-0.20269383 -0.14403741 0  
0.14393912 -0.2028372 0  
0.2026342 0.14393856 0  
-0.14393856 0.2026342 0  
-0.1030633 -0.10524017 0  
-0.4394695 -0.104853734 0  
0.104853734 -0.4394695 0  
0.4394695 0.104853734 0  
-0.104853734 0.4394695 0  
-0.44156647 -0.44156647 0  
0.44156647 -0.44156647 0  
0.44156647 0.44156647 0  
-0.44156647 0.44156647 0  
-0.2683254 -0.44465622 0  
0.44465622 -0.2683254 0  
0.2683254 0.44465622 0  
-0.44465622 0.2683254 0  
0.2654342 -0.4435478 0  
0.4435478 0.2654342 0  
-0.2654342 0.4435478 0  
-0.4435478 -0.2654342 0  
-0.27373606 -0.34534052 0  
0.34534052 -0.27373606 0  
0.27373606 0.34534052 0  
-0.34534052 0.27373606 0  
-0.05307205 -0.4481981 0  
0.4481981 -0.05307205 0  
0.05307205 0.4481981 0  
-0.4481981 0.05307205 0  
-0.35614902 -0.19390328 0  
0.19390328 -0.35614902 0  
0.35614902 0.19390328 0  
-0.19390328 0.35614902 0  
-0.14022674 -0.012452113 0  
0.14171903 0.011271359 0  
-0.01125192 0.14089845 0  
-0.19556868 -0.06932378 0  
0.070511825 -0.19668652 0  
0.19556868 0.06932378 0  
-0.06932378 0.19556868 0  
-0.24951252 -0.039742906 0  
0.04037078 -0.2503529 0  
0.24951252 0.039742906 0  
-0.039742906 0.24951252 0  
0.44100407 -0.36164257 0  
0.36164257 0.44100407 0  
-0.44100407 0.36164257 0  
-0.36164257 -0.44100407 0  
-0.4451273 -0.36589316 0  
0.36589316 -0.4451273 0  
0.4451273 0.36589316 0  
-0.36589316 0.4451273 0  
0.1121834 -0.30242515 0  
0.30242515 0.1121834 0  
-0.1121834 0.30242515 0  
-0.30242515 -0.1121834 0  
-0.115146436 -0.19087775 0  
0.19190264 -0.11309679 0  
0.11520548 0.19263776 0  
-0.19263776 0.11520548 0  
-0.08287991 -0.37025127 0  
0.37025127 -0.08287991 0  
0.08287991 0.37025127 0  
-0.37025127 0.08287991 0  
0.23791528 -0.24381089 0  
0.24381089 0.23791528 0  
-0.23791528 0.24381089 0  
-0.24381089 -0.23791528 0  
-0.44626984 -0.21174923 0  
0.21174923 -0.44626984 0  
0.44626984 0.21174923 0  
-0.21174923 0.44626984 0  
0.35174853 -0.37705234 0  
0.37705234 0.35174853 0  
-0.35174853 0.37705234 0  
-0.37705234 -0.35174853 0  
-0.048605647 -0.023262763 0  
-0.1551113 -0.21381997 0  
0.21381997 -0.1551113 0  
0.1551113 0.21381997 0  
-0.21381997 0.1551113 0  
-0.29403278 -0.30027482 0  
0.30027482 -0.29403278 0  
0.29403278 0.30027482 0  
-0.30027482 0.29403278 0  
0.12173745 -0.390654 0  
0.390654 0.12173745 0  
-0.12173745 0.390654 0  
-0.390654 -0.12173745 0  
-0.12236246 -0.2979882 0  
0.2979882 -0.12236246 0  
0.12236246 0.2979882 0  
-0.2979882 0.12236246 0  
-0.0945969 -0.046371013 0  
0.035276897 -0.027358124 0  
-0.0076714605 0.051946 0  
-0.30809116 -0.17165439 0  
0.17165439 -0.30809116 0  
0.30809116 0.17165439 0  
-0.17165439 0.30809116 0  
-0.16592422 -0.10879113 0  
0.10700909 -0.1687818 0  
0.16864619 0.10664837 0  
-0.10664837 0.16864619 0  
-0.16784625 -0.38069874 0  
0.38069874 -0.16784625 0  
0.16784625 0.38069874 0  
-0.38069874 0.16784625 0  
-0.4563872 -0.05993889 0  
0.05993889 -0.4563872 0  
0.4563872 0.05993889 0  
-0.05993889 0.4563872 0  
0.31103167 -0.37412483 0  
0.37412483 0.31103167 0  
-0.31103167 0.37412483 0  
-0.37412483 -0.31103167 0  
-0.3909646 -0.012754724 0  
0.012754724 -0.3909646 0  
0.3909646 0.012754724 0  
-0.012754724 0.3909646 0  
0.44915667 -0.21679194 0  
0.21679194 0.44915667 0  
-0.44915667 0.21679194 0  
-0.21679194 -0.44915667 0  
0.045831423 0.12033131 0  
-0.12662303 0.045442794 0  
-0.3107799 -0.37355793 0  
0.37355793 -0.3107799 0  
0.3107799 0.37355793 0  
-0.37355793 0.3107799 0  
0.04152367 0.021693805 0  
-0.08040017 -0.2675595 0  
0.26794365 -0.08044455 0  
0.080500565 0.2680441 0  
-0.2680441 0.080500565 0  
-0.13753757 -0.45578164 0  
0.45578164 -0.13753757 0  
0.13753757 0.45578164 0  
-0.45578164 0.13753757 0  
-0.05507968 -0.12135967 0  
0.14172421 -0.09428923 0  
0.2571752 -0.19664502 0  
[...]
POINT_DATA 2173 
SCALARS T float 
LOOKUP_TABLE default 
-2.7189592093731874e-25 
1.1629013074095603e-33 
1.890398490585462e-27 
-1.2801532675404205e-20 
3.075674707796889e-25 
5.205715459484417e-25 
-5.340462049503791e-25 
6.1088743551780735e-25 
3.724908526826348e-25 
8.139680085305786e-24 
-1.2946497637778456e-23 
2.8967079409840686e-23 
-5.975459241282086e-23 
1.8597708633367774e-23 
8.468235832052796e-24 
-5.724180090749415e-25 
-2.0523490043276684e-25 
-4.851897822740458e-25 
-2.18442213435323e-25 
6.209758343041233e-26 
1.4620416897024056e-26 
2.430712225187257e-27 
5.1492528083282595e-28 
2.8953553832544376e-27 
-6.381435547717673e-28 
9.27287808224908e-28 
-2.5177063674165516e-28 
-2.8394554452921264e-28 
-4.043638017508911e-30 
1.938402245410087e-30 
7.941262191929423e-31 
6.847287184366487e-31 
-3.1528391206042585e-30 
-7.267931388058945e-31 
-4.275930998966644e-31 
9.977212930634265e-34 
3.3017155980874593e-32 
-2.817007784645066e-32 
-1.3101909402840886e-32 
1.9252794744957835e-33 
-6.840189600016799e-33 
-1.5009375795957813e-32 
2.0424924016939348e-33 
-2.9068581035895177e-33 
-1.6195290288706319e-32 
2.7801133658332336e-32 
-7.647990904702855e-33 
-6.70295723214666e-33 
-2.012217448108973e-31 
4.658153476779918e-31 
-1.2926265310864397e-30 
1.9784313960695428e-30 
-1.2404443613588704e-30 
-3.8229755432049966e-31 
5.292188909513532e-31 
-1.0597428959491392e-30 
3.752974541894614e-30 
-6.82756993206579e-30 
7.750685976878335e-30 
-1.0439580455399505e-29 
7.494440452899996e-30 
-6.02370706906257e-31 
3.279161739556335e-30 
8.307231726571948e-29 
-2.778452729871274e-28 
5.886912267603336e-28 
-2.414408563232309e-28 
9.691227271327194e-28 
-2.094444042428177e-27 
2.505763035134369e-27 
-4.944028380056326e-27 
5.819748804172693e-27 
2.390682250662346e-26 
1.2057487290726574e-26 
-1.066733854855903e-27 
-2.2795196788074483e-28 
1.2103576228386334e-26 
8.65595039995545e-27 
1.1224675375314717e-27 
1.2022559082386804e-26 
9.169920460116396e-28 
4.256847574532749e-27 
-5.406723133012166e-27 
-3.1957804469127405e-26 
4.79522299585706e-26 
-7.3004544284013e-27 
-2.8930392644751876e-26 
6.150855054206933e-26 
-1.0767385465871779e-24 
7.035993165942507e-24 
-2.948335778993067e-23 
7.740525094171127e-23 
-1.270569369998207e-22 
1.460118135868852e-22 
-3.3363388306999773e-22 
9.199814291156593e-22 
-1.3192815585244095e-21 
1.0902725005901565e-21 
-9.828955066610108e-22 
-2.1355956063995125e-21 
3.3020581146608127e-21 
-1.3718587734823365e-21 
-3.391452937958079e-21 
1.8753007808555794e-20 
-7.677547377990455e-20 
3.278096576633406e-19 
1.4406720319423759e-19 
1.094089347873081e-19 
1.1783185198119457e-19 
-7.492519839456862e-20 
-1.1935470981973953e-19 
1.9470055881756215e-18 
1.875907439607128e-18 
9.315363081913572e-19 
2.1114216673555704e-19 
3.059113468596623e-19 
4.984952919909191e-20 
-1.0706332328576764e-20 
8.469859234176576e-21 
6.158429660339161e-20 
-2.574678985547941e-20 
2.838670235026199e-20 
1.7115962482689496e-19 
-3.114370729115965e-19 
1.0680259712613325e-19 
2.6471110715197007e-20 
1.3506173964500299e-18 
-2.3732060722459112e-18 
3.94737275048392e-18 
7.5519719322832315e-19 
-2.2152938610156175e-17 
5.782030702838151e-17 
-4.9373268970208727e-17 
4.849997100390389e-17 
-1.3573268002160816e-16 
2.2633001292045943e-16 
-1.5579714135168618e-16 
7.977303432309604e-17 
-5.2280156513363135e-17 
3.3499519240712894e-17 
-4.8615699663847065e-17 
8.803768870748728e-17 
-1.3985943152960857e-16 
1.2688305657934393e-16 
-9.22393666562918e-17 
-4.6114168547803194e-18 
-5.187394001783253e-18 
1.7845605556316525e-18 
-1.2911628540999896e-18 
-1.0569436510663086e-18 
-9.36781196123422e-19 
-5.197219677599271e-19 
-2.1074567401344465e-19 
-3.429920871564586e-20 
-4.124541147921403e-21 
1.148656005409383e-22 
-1.702890731919166e-23 
-2.4703379590985804e-23 
-8.617875489319601e-24 
-1.719126478483965e-25 
2.2230947299311214e-7 
0.001461086812752099 
-5.884576619032851e-15 
2.10972702092197e-11 
0.000613398071567195 
0.40476612393338823 
-6.316387522783335e-12 
2.775672938714206e-14 
4.02002857991684e-8 
-3.456806021797705e-18 
-5.125926432471809e-13 
1.648069183784945e-5 
-5.6329743691194626e-9 
0.05856796003098972 
6.400690875928027e-11 
-3.8574542848398116e-10 
-3.208631674506848e-5 
-1.5345474327310383e-9 
-5.598297001766656e-16 
1.3208778161682257e-9 
0.0018252843083446755 
4.28518252071395e-15 
-7.275736257074886e-14 
3.7570700854705956e-6 
0.010427973908253528 
4.508013405194063e-6 
-3.5960893932149633e-12 
-1.885886859250698e-8 
0.01442331609374332 
2.1609505961134426e-12 
9.164834439929425e-18 
1.1599209997189495e-7 
0.001667984382208798 
-1.239915272662788e-17 
8.470543093331003e-11 
-6.0466640006048416e-5 
-1.8631336152309384e-10 
-9.21012808595223e-18 
1.1161575822039541e-13 
6.8547983703202435e-6 
-5.388145862087031e-8 
0.5399146949638424 
1.4606400763139917e-12 
1.3582092821485426e-13 
-5.752161803727733e-6 
6.570284802840848e-7 
-1.1501157748280606e-14 
7.785379521043651e-10 
0.00021102075964816105 
-1.412618678730567e-10 
-1.6519277958842662e-19 
5.61860718255638e-14 
6.330872800658777e-7 
7.0108425630721814e-15 
2.5158885904831704e-15 
1.0753392639823542e-7 
0.0016977458201219368 
5.084448682433334e-17 
9.296948811692787e-12 
0.00040029304171575577 
-1.3615983428550633e-7 
0.0012404156667775242 
1.775036080182938e-16 
-1.786997819048322e-12 
1.4544251994164113e-5 
0.0011348599628513353 
5.313803456569069e-5 
4.246607275309725e-10 
-9.172924425904172e-7 
0.006501723229469387 
-0.00012108777890509919 
2.0188500616018707e-13 
1.3442246588251706e-10 
-1.8181033973900535e-18 
1.3598781859690205e-13 
4.141982353829006e-6 
-1.6373744561405144e-10 
8.935313544532891e-20 
-7.314693767574764e-15 
9.96582014264476e-7 
-8.901215320252193e-9 
0.4127158972683081 
4.510881316825494e-10 
-3.8613638804310084e-12 
-3.365362496308934e-7 
1.658931600748795e-12 
2.8594033613649904e-17 
9.074289961872854e-9 
-0.0004611595299396225 
-3.7254235348261955e-18 
1.4671530876596592e-15 
1.419874897872057e-6 
2.2233298847612583e-5 
0.2214113333075319 
-4.174224571902475e-13 
-5.096683164173035e-15 
8.568953737254789e-7 
7.619689842865386e-10 
0.00759659830256933 
-6.112997526866649e-10 
-2.55831436510702e-16 
1.0593480095197878e-8 
-9.917721561218136e-18 
8.480257110514225e-10 
0.00018125833370026222 
-2.205832450425917e-11 
-1.3411142167156725e-8 
-6.693749025180816e-6 
6.865895169218215e-11 
-2.2350557086609343e-15 
1.902612842414145e-11 
0.0002500387982309142 
1.1346637723358949e-7 
0.07433606311807377 
-1.790207735622295e-8 
4.93214744815842e-13 
2.672003013296267e-8 
6.766298609577342e-8 
0.01760193498985707 
-2.0144329848499903e-15 
3.134618572483349e-12 
0.00013231328197903198 
2.2990231460757156e-14 
8.437485840733047e-17 
1.5867684799665206e-9 
0.0003431382486136552 
-2.7260669724657045e-9 
0.00027122825397717153 
0.06569537443406312 
4.466606917382417e-12 
7.215400833383372e-15 
2.3140780207036234e-7 
1.0171886097556588e-9 
-4.78084533801152e-17 
9.880239707953473e-11 
-5.288863421084141e-5 
3.940848082806672e-7 
6.012205074834866e-18 
6.718603342901064e-13 
3.0159255448317295e-5 
0.0758215160043163 
-2.1320185137796817e-13 
7.653297067464685e-12 
0.00021749384009867801 
0.0030274422606290487 
-2.2738776142948395e-5 
1.5314718374976871e-16 
-1.1787200113975676e-15 
5.059803526714138e-8 
1.6337783989079633e-12 
-3.611242309310651e-20 
-2.5861327542383553e-14 
2.7902606498880185e-7 
4.1503293032312777e-11 
-2.0460848510494146e-18 
-9.2810944529488e-12 
1.3500086125146112e-5 
-2.5608058645085726e-19 
1.3474500654733598e-14 
1.8747375665249098e-6 
-3.3357974139347223e-7 
-2.9501032209775688e-8 
-5.1551293670777616e-17 
1.2405203871413943e-11 
9.955128498703825e-5 
-7.852412543573558e-15 
2.3875011994192603e-17 
5.714136747291989e-10 
-9.268654671733583e-5 
0.00018917317970947704 
-9.039142739704114e-16 
-8.317840942366373e-14 
4.163704678513946e-6 
0.04791443187350754 
2.9143600723243197e-11 
-7.662565000054166e-7 
0.48361877826165495 
4.1474311734590804e-11 
-1.0099204582570948e-11 
1.1700114105519553e-5 
0.9830104123653066 
7.194769584494781e-11 
1.6567649780698835e-13 
-5.311612806570964e-7 
-2.3039065795865113e-19 
-5.438156874609294e-13 
1.2933372766591048e-6 
-9.767953827664633e-12 
-1.1087965636611222e-9 
1.1775664252728355e-20 
-3.991336507318214e-15 
8.199034275631756e-8 
-3.9537737606774414e-14 
-1.1498840201265393e-13 
1.2124432182649588e-5 
0.165996323359622 
8.936969597388465e-5 
-6.026874350770557e-13 
-5.94322228897821e-10 
0.0012822041803277088 
-2.186912860181266e-11 
-2.740829660206356e-16 
1.505818226290983e-8 
-2.540441577210315e-5 
-1.9434428722098065e-16 
1.1119552187050638e-12 
3.3064845094806194e-5 
0.00013622594595499036 
-1.321822321623294e-6 
-4.533835594759963e-18 
-3.2966529748367376e-15 
-1.340660075073923e-7 
3.437286804414552e-19 
2.4266589638796664e-13 
-1.3481403556387876e-6 
-2.2355473712773628e-9 
5.510969268814801e-5 
0.00018119620220869202 
-8.466157601483674e-16 
5.702272798668428e-11 
0.0010744135618530137 
1.2221221269865526e-7 
1.7628824726031037e-17 
1.9064109837621226e-12 
2.123419193856326e-5 
-3.948439798651266e-16 
-3.0141143983862122e-15 
-1.0384640660881186e-7 
0.0014319091121174576 
-2.5487010429053738e-8 
-5.0668153167921585e-15 
2.2739791033848427e-9 
0.0022109196394468123 
0.003948095314739118 
-2.6314874467667644e-9 
5.64377176723918e-7 
0.008421603825784742 
-1.1068267849711922e-14 
1.649808667093885e-14 
3.377323186495948e-5 
0.09208813760597251 
2.4902321609191936e-12 
-1.1586467864284975e-10 
-2.383280751675809e-5 
-2.4401810237463315e-10 
-9.804873195359509e-17 
-1.47611799188077e-10 
0.0009535225292756369 
-0.0001012723633761937 
1.3104326463421524e-15 
-1.0335120393361593e-16 
-3.025421305373051e-8 
8.844604740143696e-19 
-2.784166285721473e-14 
3.909297455903009e-6 
1.4351650822247472e-8 
0.002301683054769963 
2.2734020306112838e-13 
2.2256127780105525e-15 
1.2638624929467287e-7 
-2.114449965379652e-18 
7.798281834652479e-11 
-9.153475748995507e-6 
-1.1869164891854621e-11 
-8.866992461175208e-8 
0.003355054632390043 
-2.9466646403379436e-9 
-5.123778962042896e-19 
6.9084160898960715e-12 
-8.275849889171088e-6 
1.535378320534848e-8 
-6.309554654024728e-9 
4.7833002043735205e-14 
8.688150684933332e-9 
0.015257371863151762 
1.9464060930201955e-13 
6.489254151722087e-18 
1.7953770290959349e-9 
-0.00021977585878843375 
4.2238599490514526e-5 
6.766788931750583e-14 
4.083373235350817e-15 
1.436931067935375e-10 
0.0009294949555121611 
8.202467664254013e-6 
-3.9497332397813216e-11 
5.017459564493839e-7 
-8.266494500793351e-10 
-6.2485147511331e-19 
1.3240929361997532e-12 
-8.840668846725165e-7 
1.7431041832464278e-20 
-2.404455889894058e-12 
1.0106323803934318e-6 
8.187422839761355e-12 
1.276228837897713e-20 
-2.597828033401717e-16 
2.694766681853499e-8 
9.058256070610388e-10 
-7.857272254370219e-10 
-7.41574390385907e-6 
0.6219061856776473 
8.737333045393574e-13 
-9.047687797224934e-14 
-3.665944511633796e-6 
1.6949740998193757e-5 
1.5641377739521834e-11 
6.267155289168388e-7 
8.975947542286861e-9 
2.8476994981726883e-12 
-1.8416645569451425e-7 
0.15241792074694896 
0.45564149286466754 
2.621761242363785e-9 
-4.944868373159337e-13 
2.3479143728365307e-7 
-3.5674168732156123e-6 
-2.068657236479915e-19 
-1.4518208341394037e-15 
1.4168622688016397e-7 
4.923828492832665e-10 
-3.418396475724368e-10 
2.26211193666219e-18 
-2.0324316887006367e-14 
2.127985922948454e-6 
0.00037255520785818086 
0.00033564010929086315 
-7.532306570001648e-18 
1.447967141878197e-11 
4.809907357363881e-6 
-1.6416781525310475e-9 
0.012917527165733477 
9.094072110846133e-11 
-2.373891672228579e-15 
-1.6181590527999523e-8 
5.500741459942999e-15 
9.847311019080614e-18 
2.124262136335837e-9 
-9.185816054760668e-5 
1.4229214273754413e-13 
4.7114448995362766e-15 
5.24866245616282e-7 
0.06305507396144122 
0.03629015852863833 
4.77988699304413e-15 
3.4814359164426674e-14 
1.28536737993202e-6 
0.005751999405058673 
-0.0002986406100841696 
-6.577563768660977e-14 
-1.2394132431603756e-10 
1.9299130884544023e-19 
3.487264989378149e-14 
4.6303361378532456e-6 
1.560056193472692e-7 
-4.3156068500159037e-11 
-1.2232311709573032e-16 
-1.7646096063946964e-9 
0.002226857589610688 
1.4329414249612913e-14 
-6.770910382648624e-18 
-2.5925546701255987e-9 
4.124960116907754e-5 
1.7682860997962933e-5 
-4.583285104843349e-18 
1.51537507930308e-14 
3.6728249837330578e-6 
-3.58157652312847e-20 
-7.874260239795223e-14 
3.4660978644240787e-7 
-1.572311822490077e-12 
-1.9929483240097514e-21 
5.650450734453387e-15 
-3.16585498710192e-9 
-5.731372254824254e-12 
0.0766569819370893 
2.4718956976876507e-10 
-3.9588531172740114e-14 
3.666449306887339e-8 
0.24322988912602622 
-2.887318908306866e-11 
-4.333834913394889e-6 
4.748094792091163e-9 
-0.0017824508891410183 
0.40822746715186514 
-8.13665985602759e-13 
3.746229186506885e-14 
-6.635966954925833e-7 
0.00019225844631279358 
-3.642836028382716e-13 
3.553044727315835e-18 
2.0725019274924936e-8 
-2.6350549451556447e-11 
0.003902128550638339 
-4.099439781919756e-16 
1.0294192085385218e-11 
0.0001371748895391619 
-1.0806390042083438e-18 
-6.051648073721357e-11 
4.752244441303863e-5 
1.310343396512714e-12 
-1.7231695419067688e-8 
0.2719209299002902 
-4.943050171654832e-13 
-2.1618315507370243e-11 
0.0001081432505438157 
3.237306521781851e-15 
8.679493437492836e-17 
-9.872864968377114e-9 
1.766453480990554e-5 
1.213050241593119e-14 
8.738116869038494e-10 
0.00045400808480800653 
3.6296068353229557e-6 
-4.246620932637279e-9 
9.98512268937694e-6 
1.112352052284747e-16 
3.889190950383403e-12 
0.00010592655275663222 
1.2390289508655947e-5 
0.002444525259365054 
-2.2616406168228204e-11 
5.144693966331127e-16 
3.29579244496906e-9 
4.677574418476441e-5 
-1.5162735254084115e-16 
1.56791868919778e-13 
3.9489783844620685e-6 
9.293906098737498e-7 
-2.0219318626677806e-13 
-5.894294578564953e-9 
0.0040499456137802125 
-1.2686796184081735e-16 
2.1378662966434967e-11 
0.00017079765476795273 
3.1004715555500426e-9 
-8.414843184378318e-11 
-1.1076002608561916e-17 
1.6355973285981757e-10 
-0.00011272957087001932 
-1.2849472169760517e-9 
-2.3159768252072045e-16 
1.6580239354638388e-10 
-0.0012106666733322903 
-1.926651286254421e-8 
-6.167569624920075e-16 
1.2514228863357428e-11 
0.0003372806894077406 
8.732819390826835e-10 
-0.00020937414275328762 
-4.34549357777633e-18 
8.215490142604375e-16 
9.777262829470615e-8 
-1.6135115972193804e-6 
1.0451465944467229e-12 
-8.322420648767353e-21 
-9.15308979548895e-15 
8.765411664139465e-8 
0.11420289944951623 
-1.0856001097547298e-14 
-3.4559096140942615e-12 
4.019470794978516e-5 
0.05377366181382449 
6.220580788335716e-12 
3.248952435523057e-8 
2.1851783074797143e-5 
-1.3231953516909103e-9 
-4.922248544386544e-12 
-1.950794025353588e-17 
1.109089064557777e-9 
0.0006993497695833933 
1.4148069432231752e-8 
-3.7374506552007075e-10 
7.196352810389399e-20 
1.8839799065724976e-13 
-6.173570460263961e-7 
1.3541860997801864e-15 
-1.2440515660162836e-12 
0.00013189157361868475 
0.018732047002000356 
1.9479071698372083e-13 
3.3281375855222606e-16 
1.5338198927876655e-8 
-0.0005337167223296191 
0.0011349038775754822 
0.00013663332757553312 
0.000888056655771654 
-6.020098121356926e-14 
8.475548193571781e-14 
2.0015893881377306e-13 
-5.99263769417424e-11 
-4.811706085605853e-11 
3.551532543893053e-10 
0.0005389417146246504 
-0.0015148620398008393 
0.00016556815965389766 
-4.109129561414206e-8 
3.118730265312061e-7 
4.853859826007347e-7 
-1.4045029553779957e-12 
4.3613047727149426e-13 
5.139968457297594e-13 
2.214107132574592e-8 
5.588768460627148e-8 
-2.855887004584654e-8 
0.11871889461362324 
0.061207091874739446 
0.054476829473588596 
0.006088412652003278 
0.0008891534467408061 
0.0005747821384226947 
-0.0005434637762872653 
6.515449461254506e-16 
-1.1748949798861328e-13 
3.547807604603511e-11 
-5.199470022945155e-10 
0.0400914913222187 
0.014130744927693128 
1.4666640346610225e-7 
3.931910300496074e-6 
-3.983153724019866e-13 
9.083669602879875e-13 
8.099161826757787e-10 
1.4424013688820287e-8 
-1.899972194889257e-8 
2.0206042661610178e-8 
4.592388402788473e-8 
0.08207720310264881 
0.022035908485506576 
0.01551808960921023 
0.006041765313295263 
0.027791079549023285 
1.6219375131495174e-11 
-6.506815898199837e-11 
1.0485598664962015e-10 
5.921146862626921e-18 
2.529543409758943e-18 
-6.6075799452502405e-18 
2.6706147937970934e-11 
1.4509755535333212e-12 
-1.0541838581069334e-10 
-1.5127191765550609e-5 
-1.6692270210610833e-5 
5.28135764063602e-5 
-6.957815999851365e-11 
6.796789869573048e-12 
9.358184835492456e-21 
-7.558979435920529e-22 
-3.5315163105266894e-15 
-4.1589950061110664e-16 
-4.597995934866994e-8 
5.119567516105917e-9 
-3.0960551779509936e-12 
5.821606900133629e-13 
3.296251991242689e-20 
-1.0277512819910364e-20 
7.057353573947859e-14 
-1.7855781930314465e-14 
-3.564604809601822e-7 
1.1783735844574264e-7 
0.2205915486089982 
0.11370255005595044 
0.18020798697542448 
1.2309783661215081e-12 
2.7635999826748115e-11 
-2.058818958816153e-11 
2.916176324574224e-14 
-6.300142356223471e-16 
-1.9490308529977802e-14 
-2.5425094970290764e-8 
-8.349304829384303e-8 
3.451988733018735e-8 
7.789468739458166e-19 
4.2530853524527126e-19 
-4.2409206613037313e-19 
-4.534425940270805e-12 
4.704986686213185e-12 
1.1764086905588033e-12 
-2.2281102340027973e-6 
-4.689602627772835e-6 
2.2212031625071905e-6 
-1.8213421996374877e-11 
-2.193905656581318e-11 
1.1634327808361783e-11 
-2.3446550013073e-20 
4.789859860049657e-20 
-7.392936393984237e-21 
8.692101860897146e-16 
-3.7979623856348305e-15 
-1.9093394943072883e-15 
-1.3529437793303258e-7 
1.5511477698844828e-7 
-4.83608796506159e-7 
2.7301574131120335e-8 
1.919532566432184e-8 
1.5061957801971997e-7 
2.1913538009199633e-11 
-8.381761791682076e-19 
1.5028750465270607e-11 
-2.6654577353262998e-6 
7.746971486314548e-20 
-6.452589987080353e-15 
-6.814078905505715e-7 
3.602946062852022e-7 
-1.0292124672849525e-18 
9.325266213583807e-19 
1.5276178386143667e-14 
-2.418667555042186e-15 
7.242605712225958e-7 
2.745928038593332e-8 
-8.707686593152844e-7 
5.404969963203501e-7 
0.00823045030185369 
0.016135359931393707 
0.002502842633665595 
1.212379450662641e-10 
-2.721619110367126e-12 
4.553775976343519e-21 
-2.5553693688721722e-20 
-2.0612809081689126e-16 
6.204057731792368e-15 
-8.930340405763964e-8 
1.1612344985981948e-7 
7.932655326168844e-12 
5.8700107636675396e-12 
-1.1845470750814827e-19 
9.295960908500562e-20 
-3.0090806213251983e-13 
2.2194276526304011e-13 
1.1470309595382777e-6 
-7.481003272244183e-7 
0.039336500426906916 
0.02786477972573009 
-1.6456285795709066e-10 
-3.854327639425015e-12 
1.103579731616592e-14 
-3.175999155562784e-15 
4.50435237597536e-8 
-3.0301809963258326e-8 
2.505084159432688e-7 
-2.661716242351204e-7 
-1.472951647094838e-7 
-1.9349101301201586e-18 
9.868570542705364e-19 
-9.779243064844642e-18 
1.1748204443488246e-13 
-1.294382597751037e-13 
-3.279941679309277e-13 
7.968460106448478e-6 
-9.088042809807577e-6 
-1.83648581423626e-5 
-9.621351955882944e-8 
1.6491981014073658e-8 
4.7336303381223595e-11 
1.031985374011952e-10 
9.01914038865086e-18 
1.1089859314594222e-17 
3.049276665885701e-10 
-1.618130915349322e-10 
-0.00013003651159936526 
0.0001314324835871124 
6.480917183057555e-17 
-7.641315357921398e-16 
7.881419764694777e-17 
-5.719975252947153e-15 
2.6394569096766284e-15 
1.3696420799316116e-15 
-2.6162170453442657e-7 
2.639250739108163e-7 
-4.967873886348722e-7 
0.00013622488200055717 
0.00032998428702200725 
5.883688740985607e-5 
-1.1694935758990459e-20 
-5.923069687087084e-19 
2.1661254255302593e-18 
-3.5372128859566016e-14 
-6.634087250521437e-13 
7.738630708979874e-13 
-1.8295416223768888e-6 
4.008212305490986e-6 
-8.808058334347224e-6 
3.5877953675637316e-9 
-9.577278756479654e-10 
2.5611509593648156e-9 
2.6199533128919043e-8 
-5.4379334880043066e-8 
1.1954597738161667e-18 
-4.2547420552561385e-18 
5.0928695233035234e-14 
-1.4014428425473584e-13 
-3.0878214739606286e-7 
-1.992664635704005e-6 