# vtk DataFile Version 3.0 
Unstructured Grid 
ASCII 
DATASET UNSTRUCTURED_GRID
POINTS 2173 float 
-0.5 -0.5 0  
0.5 -0.5 0  
0.5 0.5 0  
-0.5 0.5 0  
-0.475 -0.5 0  
-0.45 -0.5 0  
-0.425 -0.5 0  
-0.4 -0.5 0  
-0.375 -0.5 0  
-0.35 -0.5 0  
-0.325 -0.5 0  
-0.3 -0.5 0  
-0.275 -0.5 0  
-0.25 -0.5 0  
-0.225 -0.5 0  
-0.2 -0.5 0  
-0.175 -0.5 0  
-0.15 -0.5 0  
-0.125 -0.5 0  
-0.1 -0.5 0  
-0.075 -0.5 0  
-0.05 -0.5 0  
-0.025 -0.5 0  
-1.3761214e-12 -0.5 0  
0.025 -0.5 0  
0.05 -0.5 0  
0.075 -0.5 0  
0.1 -0.5 0  
0.125 -0.5 0  
0.15 -0.5 0  
0.175 -0.5 0  
0.2 -0.5 0  
0.225 -0.5 0  
0.25 -0.5 0  
0.275 -0.5 0  
0.3 -0.5 0  
0.325 -0.5 0  
0.35 -0.5 0  
0.375 -0.5 0  
0.4 -0.5 0  
0.425 -0.5 0  
0.45 -0.5 0  
0.475 -0.5 0  
0.5 -0.475 0  
0.5 -0.45 0  
0.5 -0.425 0  
0.5 -0.4 0  
0.5 -0.375 0  
0.5 -0.35 0  
0.5 -0.325 0  
0.5 -0.3 0  
0.5 -0.275 0  
0.5 -0.25 0  
0.5 -0.225 0  
0.5 -0.2 0  
0.5 -0.175 0  
0.5 -0.15 0  
0.5 -0.125 0  
0.5 -0.1 0  
0.5 -0.075 0  
0.5 -0.05 0  
0.5 -0.025 0  
0.5 -1.3761214e-12 0  
0.5 0.025 0  
0.5 0.05 0  
0.5 0.075 0  
0.5 0.1 0  
0.5 0.125 0  
0.5 0.15 0  
0.5 0.175 0  
0.5 0.2 0  
0.5 0.225 0  
0.5 0.25 0  
0.5 0.275 0  
0.5 0.3 0  
0.5 0.325 0  
0.5 0.35 0  
0.5 0.375 0  
0.5 0.4 0  
0.5 0.425 0  
0.5 0.45 0  
0.5 0.475 0  
0.475 0.5 0  
0.45 0.5 0  
0.425 0.5 0  
0.4 0.5 0  
0.375 0.5 0  
0.35 0.5 0  
0.325 0.5 0  
0.3 0.5 0  
0.275 0.5 0  
0.25 0.5 0  
0.225 0.5 0  
0.2 0.5 0  
0.175 0.5 0  
0.15 0.5 0  
0.125 0.5 0  
0.1 0.5 0  
0.075 0.5 0  
0.05 0.5 0  
0.025 0.5 0  
1.3761214e-12 0.5 0  
-0.025 0.5 0  
-0.05 0.5 0  
-0.075 0.5 0  
-0.1 0.5 0  
-0.125 0.5 0  
-0.15 0.5 0  
-0.175 0.5 0  
-0.2 0.5 0  
-0.225 0.5 0  
-0.25 0.5 0  
-0.275 0.5 0  
-0.3 0.5 0  
-0.325 0.5 0  
-0.35 0.5 0  
-0.375 0.5 0  
-0.4 0.5 0  
-0.425 0.5 0  
-0.45 0.5 0  
-0.475 0.5 0  
-0.5 0.475 0  
-0.5 0.45 0  
-0.5 0.425 0  
-0.5 0.4 0  
-0.5 0.375 0  
-0.5 0.35 0  
-0.5 0.325 0  
-0.5 0.3 0  
-0.5 0.275 0  
-0.5 0.25 0  
-0.5 0.225 0  
-0.5 0.2 0  
-0.5 0.175 0  
-0.5 0.15 0  
-0.5 0.125 0  
-0.5 0.1 0  
-0.5 0.075 0  
-0.5 0.05 0  
-0.5 0.025 0  
-0.5 1.3761214e-12 0  
-0.5 -0.025 0  
-0.5 -0.05 0  
-0.5 -0.075 0  
-0.5 -0.1 0  
-0.5 -0.125 0  
-0.5 -0.15 0  
-0.5 -0.175 0  
-0.5 -0.2 0  
-0.5 -0.225 0  
-0.5 -0.25 0  
-0.5 -0.275 0  
-0.5 -0.3 0  
-0.5 -0.325 0  
-0.5 -0.35 0  
-0.5 -0.375 0  
-0.5 -0.4 0  
-0.5 -0.425 0  
-0.5 -0.45 0  
-0.5 -0.475 0  
-0.002115384 -0.00023065208 0  
-0.20714286 -0.20714286 0  
0.20714286 -0.20714286 0  
0.20714286 0.20714286 0  
-0.20714286 0.20714286 0  
-0.28155318 -0.0017231192 0  
0.0017231192 -0.28155318 0  
0.28155318 0.0017231192 0  
-0.0017231192 0.28155318 0  
0.3319978 -0.33098683 0  
0.33098683 0.3319978 0  
-0.3319978 0.33098683 0  
-0.33098683 -0.3319978 0  
-0.14015679 -0.06698606 0  
0.06698606 -0.14015679 0  
0.14015679 0.06698606 0  
-0.06698606 0.14015679 0  
-0.1387125 -0.34573975 0  
0.34573975 -0.1387125 0  
0.1387125 0.34573975 0  
-0.34573975 0.1387125 0  
0.14046866 -0.34602854 0  
0.34602854 0.14046866 0  
-0.14046866 0.34602854 0  
-0.34602854 -0.14046866 0  
-0.05869875 -0.16617337 0  
0.18217777 -0.061504476 0  
0.062312964 0.18362015 0  
-0.18362015 0.062312964 0  
-0.034321424 -0.38563195 0  
0.38563195 -0.034321424 0  
0.034321424 0.38563195 0  
-0.38563195 0.034321424 0  
0.39586002 -0.2428538 0  
0.2428538 0.39586002 0  
-0.39586002 0.2428538 0  
-0.2428538 -0.39586002 0  
0.23688246 -0.38952246 0  
0.38952246 0.23688246 0  
-0.23688246 0.38952246 0  
-0.38952246 -0.23688246 0  
-0.24287231 -0.09948847 0  
0.09948847 -0.24287231 0  
0.24287231 0.09948847 0  
-0.09948847 0.24287231 0  
-0.11560815 -0.24300627 0  
0.24300627 -0.11560815 0  
0.11560815 0.24300627 0  
-0.24300627 0.11560815 0  
-0.40192315 -0.4008276 0  
0.4008276 -0.40192315 0  
0.40192315 0.4008276 0  
-0.4008276 0.40192315 0  
0.06409326 -0.40289903 0  
0.40289903 0.06409326 0  
-0.06409326 0.40289903 0  
-0.40289903 -0.06409326 0  
0.2962961 -0.23982804 0  
0.23982804 0.2962961 0  
-0.2962961 0.23982804 0  
-0.23982804 -0.2962961 0  
-0.28087237 -0.21196799 0  
0.21196799 -0.28087237 0  
0.28087237 0.21196799 0  
-0.21196799 0.28087237 0  
-0.0901279 0.007867504 0  
-0.05002927 -0.07494272 0  
0.0873353 -0.009871756 0  
0.0071518295 0.09216282 0  
-0.14120433 -0.1484696 0  
-0.14581114 0.13960092 0  
0.1458264 -0.14505939 0  
0.13960092 0.14581114 0  
0.41838804 -0.3182741 0  
0.3182741 0.41838804 0  
-0.41838804 0.3182741 0  
-0.3182741 -0.41838804 0  
0.32118136 -0.41712493 0  
0.41712493 0.32118136 0  
-0.32118136 0.41712493 0  
-0.41712493 -0.32118136 0  
-0.19707234 -0.014843048 0  
0.018050108 -0.20183705 0  
0.19707234 0.014843048 0  
-0.014843048 0.19707234 0  
-0.10938372 -0.41847488 0  
0.41847488 -0.10938372 0  
0.10938372 0.41847488 0  
-0.41847488 0.10938372 0  
0.15773043 -0.4267032 0  
0.4267032 0.15773043 0  
-0.15773043 0.4267032 0  
-0.4267032 -0.15773043 0  
-0.3204562 -0.07174808 0  
0.07174808 -0.3204562 0  
0.3204562 0.07174808 0  
-0.07174808 0.3204562 0  
0.02801032 -0.07269879 0  
-0.31817523 0.069836795 0  
-0.069836795 -0.31817523 0  
0.31817523 -0.069836795 0  
0.069836795 0.31817523 0  
0.43106207 -0.17757268 0  
0.17757268 0.43106207 0  
-0.43106207 0.17757268 0  
-0.17757268 -0.43106207 0  
0.0703783 0.071201205 0  
-0.051593844 0.064346604 0  
0.099701226 -0.08333426 0  
0.2863281 -0.17248559 0  
0.17248559 0.2863281 0  
-0.2863281 0.17248559 0  
-0.17248559 -0.2863281 0  
-0.2341888 0.04979648 0  
-0.049194112 -0.231281 0  
0.23358595 -0.04946041 0  
0.04979648 0.2341888 0  
-0.009939441 -0.13691185 0  
-0.26560438 -0.17864102 0  
0.17864102 -0.26560438 0  
0.26560438 0.17864102 0  
-0.17864102 0.26560438 0  
0.013302229 -0.43510666 0  
0.43510666 0.013302229 0  
-0.013302229 0.43510666 0  
-0.43510666 -0.013302229 0  
0.09432827 0.114700764 0  
-0.11539384 0.093188405 0  
-0.3413634 -0.005100272 0  
0.005100272 -0.3413634 0  
0.3413634 0.005100272 0  
-0.005100272 0.3413634 0  
-0.19817708 -0.3508856 0  
0.3508856 -0.19817708 0  
0.19817708 0.3508856 0  
-0.3508856 0.19817708 0  
-0.34100306 -0.27216324 0  
0.27216324 -0.34100306 0  
0.34100306 0.27216324 0  
-0.27216324 0.34100306 0  
-0.20269383 -0.14403741 0  
0.14393912 -0.2028372 0  
0.2026342 0.14393856 0  
-0.14393856 0.2026342 0  
-0.1030633 -0.10524017 0  
-0.4394695 -0.104853734 0  
0.104853734 -0.4394695 0  
0.4394695 0.104853734 0  
-0.104853734 0.4394695 0  
-0.44156647 -0.44156647 0  
0.44156647 -0.44156647 0  
0.44156647 0.44156647 0  
-0.44156647 0.44156647 0  
-0.2683254 -0.44465622 0  
0.44465622 -0.2683254 0  
0.2683254 0.44465622 0  
-0.44465622 0.2683254 0  
0.2654342 -0.4435478 0  
0.4435478 0.2654342 0  
-0.2654342 0.4435478 0  
-0.4435478 -0.2654342 0  
-0.27373606 -0.34534052 0  
0.34534052 -0.27373606 0  
0.27373606 0.34534052 0  
-0.34534052 0.27373606 0  
-0.05307205 -0.4481981 0  
0.4481981 -0.05307205 0  
0.05307205 0.4481981 0  
-0.4481981 0.05307205 0  
-0.35614902 -0.19390328 0  
0.19390328 -0.35614902 0  
0.35614902 0.19390328 0  
-0.19390328 0.35614902 0  
-0.14022674 -0.012452113 0  
0.14171903 0.011271359 0  
-0.01125192 0.14089845 0  
-0.19556868 -0.06932378 0  
0.070511825 -0.19668652 0  
0.19556868 0.06932378 0  
-0.06932378 0.19556868 0  
-0.24951252 -0.039742906 0  
0.04037078 -0.2503529 0  
0.24951252 0.039742906 0  
-0.039742906 0.24951252 0  
0.44100407 -0.36164257 0  
0.36164257 0.44100407 0  
-0.44100407 0.36164257 0  
-0.36164257 -0.44100407 0  
-0.4451273 -0.36589316 0  
0.36589316 -0.4451273 0  
0.4451273 0.36589316 0  
-0.36589316 0.4451273 0  
0.1121834 -0.30242515 0  
0.30242515 0.1121834 0  
-0.1121834 0.30242515 0  
-0.30242515 -0.1121834 0  
-0.115146436 -0.19087775 0  
0.19190264 -0.11309679 0  
0.11520548 0.19263776 0  
-0.19263776 0.11520548 0  
-0.08287991 -0.37025127 0  
0.37025127 -0.08287991 0  
0.08287991 0.37025127 0  
-0.37025127 0.08287991 0  
0.23791528 -0.24381089 0  
0.24381089 0.23791528 0  
-0.23791528 0.24381089 0  
-0.24381089 -0.23791528 0  
-0.44626984 -0.21174923 0  
0.21174923 -0.44626984 0  
0.44626984 0.21174923 0  
-0.21174923 0.44626984 0  
0.35174853 -0.37705234 0  
0.37705234 0.35174853 0  
-0.35174853 0.37705234 0  
-0.37705234 -0.35174853 0  
-0.048605647 -0.023262763 0  
-0.1551113 -0.21381997 0  
0.21381997 -0.1551113 0  
0.1551113 0.21381997 0  
-0.21381997 0.1551113 0  
-0.29403278 -0.30027482 0  
0.30027482 -0.29403278 0  
0.29403278 0.30027482 0  
-0.30027482 0.29403278 0  
0.12173745 -0.390654 0  
0.390654 0.12173745 0  
-0.12173745 0.390654 0  
-0.390654 -0.12173745 0  
-0.12236246 -0.2979882 0  
0.2979882 -0.12236246 0  
0.12236246 0.2979882 0  
-0.2979882 0.12236246 0  
-0.0945969 -0.046371013 0  
0.035276897 -0.027358124 0  
-0.0076714605 0.051946 0  
-0.30809116 -0.17165439 0  
0.17165439 -0.30809116 0  
0.30809116 0.17165439 0  
-0.17165439 0.30809116 0  
-0.16592422 -0.10879113 0  
0.10700909 -0.1687818 0  
0.16864619 0.10664837 0  
-0.10664837 0.16864619 0  
-0.16784625 -0.38069874 0  
0.38069874 -0.16784625 0  
0.16784625 0.38069874 0  
-0.38069874 0.16784625 0  
-0.4563872 -0.05993889 0  
0.05993889 -0.4563872 0  
0.4563872 0.05993889 0  
-0.05993889 0.4563872 0  
0.31103167 -0.37412483 0  
0.37412483 0.31103167 0  
-0.31103167 0.37412483 0  
-0.37412483 -0.31103167 0  
-0.3909646 -0.012754724 0  
0.012754724 -0.3909646 0  
0.3909646 0.012754724 0  
-0.012754724 0.3909646 0  
0.44915667 -0.21679194 0  
0.21679194 0.44915667 0  
-0.44915667 0.21679194 0  
-0.21679194 -0.44915667 0  
0.045831423 0.12033131 0  
-0.12662303 0.045442794 0  
-0.3107799 -0.37355793 0  
0.37355793 -0.3107799 0  
0.3107799 0.37355793 0  
-0.37355793 0.3107799 0  
0.04152367 0.021693805 0  
-0.08040017 -0.2675595 0  
0.26794365 -0.08044455 0  
0.080500565 0.2680441 0  
-0.2680441 0.080500565 0  
-0.13753757 -0.45578164 0  
0.45578164 -0.13753757 0  
0.13753757 0.45578164 0  
-0.45578164 0.13753757 0  
-0.05507968 -0.12135967 0  
0.14172421 -0.09428923 0  
0.2571752 -0.19664502 0  
[...]
POINT_DATA 2173 
SCALARS T float 
LOOKUP_TABLE default 
7.401832944454882e-20 
-1.1065429506952213e-18 
-7.469129648361254e-18 
-1.131680775265656e-19 
3.238932930079329e-18 
6.740043626075274e-18 
1.9807160436475455e-17 
1.6288505827199943e-17 
3.321386598793347e-17 
4.322261246310121e-17 
1.2257436615047689e-17 
3.3378109035207176e-17 
2.7749037096614006e-17 
1.3479148851105036e-17 
3.5060592485929977e-17 
-2.9686350957589317e-18 
4.433506257583658e-17 
-3.476920028447551e-17 
7.596801771110712e-17 
-8.276725916242315e-17 
9.593370969578996e-17 
4.081150649352914e-19 
-8.180192114492117e-17 
-1.8798125419867633e-18 
6.773643111147011e-17 
-1.3064741164266023e-16 
1.7868443289252221e-16 
-1.2313678692667813e-16 
-1.2191522208322495e-16 
1.317109765489359e-16 
-2.094120548570782e-16 
1.2299537040303054e-16 
-8.972461909106342e-17 
-1.2474246441758018e-16 
-5.1598035790478975e-17 
-2.540217097648533e-16 
-9.08870386560518e-17 
-3.318084941585304e-16 
-9.362497021517383e-17 
5.817715001647458e-17 
-1.4311037952689944e-16 
1.4695994636611218e-17 
6.046851232533738e-17 
-5.773628895328877e-17 
3.300572532662434e-17 
2.1578474943702048e-16 
-5.843017025260254e-17 
-5.797381727714295e-17 
4.564591059782768e-17 
-1.984259252873633e-16 
5.308137095480216e-16 
-3.655277709854206e-16 
3.3831056620954136e-16 
-9.883000822525021e-17 
2.641465264625501e-17 
-1.9252856180725924e-16 
2.1700709952770698e-16 
1.2907182070345736e-16 
-4.770167757291129e-16 
6.681128019359068e-16 
-6.256922515817291e-17 
-9.793478117106157e-16 
7.267676149961232e-16 
-4.509717632980103e-16 
1.9879558939532022e-16 
6.117532632990335e-16 
-1.3270759419393295e-15 
-6.820167182791223e-16 
-5.411925302651674e-17 
-6.71021858383834e-16 
1.0573263319795854e-16 
-7.718915822030623e-16 
3.043213550049469e-16 
6.24238669789862e-16 
4.754730803420992e-17 
-6.905719619556515e-17 
4.558121164297499e-16 
1.6959356512736081e-16 
-3.3759411843418595e-17 
3.3180181264221575e-16 
5.341554802736497e-18 
-1.5366085779269822e-16 
1.2652685623683052e-16 
8.342241352655509e-17 
-5.390499911288132e-16 
2.571986642493033e-16 
9.418023813370951e-17 
2.55534146233652e-16 
1.428977580162996e-16 
7.557590724453326e-16 
5.1519911911734954e-17 
-1.2400377604508355e-16 
3.5304510949502083e-16 
1.0655424652873457e-16 
6.889197201447529e-17 
2.0452673094835866e-16 
-1.165211521487347e-16 
2.1201943413188929e-16 
-1.192861278761882e-16 
6.14516960971179e-17 
3.8993791494835186e-17 
-8.381395280394722e-17 
7.08806442711727e-17 
-5.202855196384488e-17 
3.31556559157703e-18 
1.796643593551113e-21 
-4.557411024485185e-18 
-7.7460753507733205e-19 
-1.1540308911559146e-18 
-1.8794862690492734e-18 
4.550618768505538e-18 
-3.575805505214714e-18 
5.07275990211752e-18 
3.099353770667697e-18 
-4.01477866489353e-18 
-1.2875902725904546e-18 
-2.068258805411292e-18 
-1.0903087615769105e-18 
-2.5960267586970897e-18 
-1.0729001062232982e-18 
2.5070473364914945e-18 
-2.6102812951705204e-18 
2.2864337658548817e-18 
3.385378266390451e-18 
4.620757625299238e-18 
3.715171101861085e-18 
2.0880003888383983e-18 
9.598373528672101e-19 
1.3505466323080539e-17 
2.9731528895659586e-18 
-7.051096944494799e-19 
1.878007154602657e-18 
1.690839952547248e-18 
-5.772756609129781e-19 
3.477996968099089e-18 
4.314226755458334e-18 
-5.233930315239813e-19 
4.033638601282405e-18 
-2.2488282841708964e-18 
7.818032854558564e-18 
-1.3693375704414203e-17 
1.9647426165176807e-17 
-2.664527149017096e-17 
1.6380155323630788e-17 
-5.2477409921531076e-18 
5.6777463742966e-18 
-2.8983914964571335e-18 
9.5899840450835e-18 
-6.583954530808468e-18 
5.5961228399205466e-18 
1.440782065423073e-17 
2.954176790566904e-18 
-3.960306438078167e-18 
-1.017837340869448e-17 
-7.735563941625407e-18 
-1.269444064313858e-17 
-1.0845007432675973e-17 
-1.8994614640096537e-17 
-6.804827335376813e-18 
-2.4712856952965743e-18 
7.448508387173547e-6 
-1.1603890992741296e-5 
0.0009027921888938158 
0.03535469587412216 
-1.967363079208277e-6 
-9.902841015256314e-6 
2.3137342129960527e-5 
-3.2290545917187e-5 
0.18112535885506267 
-1.7631685193753615e-5 
0.00031438122830587705 
-1.7739956654986417e-6 
-8.46676798571402e-6 
-3.428114002998839e-5 
-0.0002118979790313817 
0.0012422711647632435 
0.003915333040760862 
-4.732914030740959e-6 
0.0005015167149156601 
0.045263832331365036 
2.0234093879714005e-6 
8.857427475683126e-5 
0.0007946944242171602 
-4.505998950903343e-5 
-1.4881767780352813e-6 
-5.183250841593013e-6 
5.953675724465076e-5 
0.38583489584034114 
-3.3925851851263663e-7 
-2.551427988564481e-5 
-0.0003905962570393515 
0.010866486297297688 
6.050762741747707e-6 
0.00024023009513629201 
-0.0004438883355311448 
1.4084766728562487e-6 
-2.6758705831550258e-5 
-9.034440084113093e-5 
0.00039113961827982207 
-2.65738526517501e-6 
-9.544490774667359e-6 
-4.997505498825357e-6 
-7.723026347894566e-5 
0.001227943172591444 
0.0048528666048107865 
1.2583631840807935e-5 
-0.0009340044520519647 
0.5283590859832517 
-1.5389761035973349e-6 
-1.6152528202221915e-5 
2.8122055548056836e-5 
0.0008976713309092034 
-1.682660055720103e-6 
3.4153491102116322e-6 
0.0005119575196648325 
-0.00010945471277459621 
-1.43517753284292e-5 
0.00038288710373664893 
0.005964900004049798 
1.722554448314753e-6 
-2.9028537611141223e-5 
-1.860368348583659e-5 
0.00033575952572313834 
0.0019395329379490434 
-2.4996903111884387e-6 
7.333878540678738e-7 
7.232980158556066e-6 
-0.0011160299721029348 
0.008000867261257967 
2.4137286336779018e-5 
-1.825293189607946e-5 
-0.00041396925281087443 
0.09278778557957747 
-7.119669535132066e-5 
0.0005849043387724837 
-2.6109909685787957e-6 
-9.86737028743806e-6 
7.062457160906552e-5 
0.00019183769146313183 
3.2190584703355003e-8 
-2.5707231743306934e-5 
-3.301213486003222e-6 
-0.00010293230823008083 
0.0006138678805978545 
0.13129206326190593 
-2.9738914017467614e-5 
-0.00042574657481445007 
0.0013616135755933657 
-3.1045353534902505e-7 
-0.00013009680855291062 
0.00028186234004493326 
-4.952825391409309e-6 
9.594703923922629e-6 
2.5553986470809607e-6 
0.00015029357106223452 
-0.0015296714526729155 
0.006627532597287346 
0.00010610077703675374 
-1.4854141541064946e-7 
5.364619138115255e-5 
-0.001111583558626804 
0.21485477715094545 
0.00029089671898797724 
-0.00019711770270997494 
4.079666908319932e-6 
-2.3293622337304817e-5 
0.004822944033280911 
0.00011833366045208913 
-0.0003400918003639791 
-0.0006068330951218718 
0.09213942350895517 
1.2109956079374749e-6 
1.2915739486219357e-5 
-8.165250615909902e-6 
1.2526957904046008e-5 
-0.0006997324280875837 
0.5732467449797086 
6.56969124868679e-5 
-7.808817694017962e-6 
0.0002784116148154559 
0.001071109289890094 
-2.1710271257288343e-5 
-3.5069322679555275e-5 
-2.119848959327373e-5 
-0.00015826242307753912 
1.2781146800428328e-5 
0.042432699243955825 
-7.531722052456126e-6 
-6.241252237420802e-6 
4.013525455967325e-5 
-0.0018186436273019508 
0.040218560309341664 
-2.3482512782912205e-5 
0.00040146130238560986 
0.005473368335070424 
3.3150382490977537e-6 
-3.857659540217438e-6 
-4.191892194188959e-5 
0.0013454500968422916 
3.153068300344258e-7 
3.454936920242113e-6 
4.423622089519517e-5 
0.009497285304742399 
5.06840679091265e-5 
2.6008055939011253e-6 
-7.847133482001306e-7 
-0.00011700454115130959 
-0.00030270654003234997 
-8.880856872502184e-6 
-2.5527046650714727e-6 
4.3881949564534664e-5 
0.00036205801150556756 
-1.1945984051568824e-6 
4.919861476834426e-6 
3.2182101773822684e-5 
2.3322654130165024e-5 
3.4810266480733874e-7 
-1.1297464727649962e-5 
0.000793125750902456 
-2.589910709003788e-7 
2.1934355552565463e-6 
4.582555816151593e-6 
0.00021473548125242923 
0.0017179323087001875 
4.234825608557217e-7 
-5.960501802790176e-5 
-0.0004292291215219865 
0.0001309986662016427 
-1.9674598704484905e-6 
-7.97959096891964e-6 
7.750791970341819e-5 
-3.5350111767028153e-6 
-2.624938753597265e-7 
7.47447767712557e-6 
-0.00043898878901794757 
0.036338392810940444 
-2.478178439013409e-5 
0.00011324020023626208 
0.00145143404890993 
0.015687565094164194 
-3.4158733046923884e-6 
0.00012330631522699783 
0.0010397905123900408 
0.08059824931558926 
-3.6986073632975566e-5 
0.0006553364731220679 
8.493153782580494e-7 
-5.389270581805084e-6 
-1.0354115189284454e-5 
0.00012459146625484256 
0.0004558400198010843 
-1.3170050816508842e-6 
1.3342568172247642e-5 
-0.00024516121295073873 
0.0007618807828811675 
6.303179839636012e-6 
-3.909219867583194e-5 
-0.0005215638005616497 
0.38064094944939597 
-3.572045550148642e-6 
6.400883935088457e-5 
-0.0005581047595372707 
0.030380466677857498 
2.280090593402464e-6 
-0.00045316607836651983 
0.0033911561022409976 
-5.212548599929845e-7 
2.3316345135339438e-5 
9.161307326541585e-6 
6.654375581695296e-5 
0.0003382945055651458 
3.4557432068235587e-6 
-1.7327953523362707e-5 
-0.00028932549443364854 
-2.613698830862971e-6 
-5.000093086980386e-6 
3.287666481214265e-6 
2.024648490853151e-5 
-0.00017533662855937634 
0.23789613897934286 
-6.676170760607213e-7 
1.311301068532214e-5 
0.00027557524468602856 
-0.000299362341393521 
-2.7225851393565653e-6 
-9.3079466591674e-5 
0.0009614942366356099 
-7.160495816974298e-5 
-6.248836590824089e-6 
-1.8244419219150886e-5 
0.0009757199687416148 
0.24463832057177937 
1.061778636392308e-6 
3.5056255551787005e-5 
0.0002179239906480879 
0.0002996085587741968 
-1.556390089520896e-5 
0.00016998772356320403 
0.0010914486318068482 
-2.7754930109089535e-5 
8.266464975342517e-6 
0.00015133398827341996 
0.009343573821693782 
0.0007585126220229515 
-1.6537188276130734e-5 
0.00027883610814145084 
0.004266485756409925 
-2.1779903118343794e-6 
-1.8686590482905105e-5 
-2.1407637702852225e-5 
0.00045666819555266 
-5.264195510623169e-5 
-0.00014372163359341789 
0.00030527186532077133 
-8.66421057168853e-7 
2.078805527673806e-6 
-5.19483192410273e-6 
-4.7765455627364885e-5 
-0.0006680971154566273 
0.002591388233858131 
-0.00013360524695440803 
-0.00025854748708067384 
-4.491808636838873e-7 
-1.3520625794733913e-5 
0.049810706935150016 
7.582422351816204e-6 
-1.9484409429278084e-5 
0.00026991717688672987 
0.00015470296691359758 
-2.336415632306017e-6 
0.00010884181072670122 
2.609995382859389e-5 
0.0006215417573763553 
0.5526604047260486 
-2.8760620642508593e-8 
-1.1156402211096924e-5 
0.0002915257276827111 
0.00012137966125229956 
-4.4295941560498014e-7 
-2.5620649943163696e-5 
0.0003286122264951523 
9.394503130880327e-5 
0.057663220131901845 
1.657301704320624e-6 
-1.3215628698883121e-5 
-0.00032377930925631506 
1.1785273813772108e-6 
1.11883171100797e-5 
-0.00024069258573239974 
-9.626442299809105e-5 
-1.6813399869652433e-6 
-5.156576381435771e-7 
6.743207717229041e-5 
2.7617566707974368e-6 
1.792152688918659e-6 
5.985064427855986e-5 
9.363224602357702e-6 
-5.0366410431924096e-6 
-7.30339692218599e-6 
-0.0007680544463979493 
0.0036092085240567147 
2.6310725547226663e-6 
9.28361058757232e-5 
-0.0010663879205426337 
0.014797006577403092 
-4.193047173020081e-6 
-3.7711551648867827e-5 
-6.606764708687767e-5 
6.563757486392993e-5 
0.0008855922755895449 
0.3411192206647982 
1.7860298979671654e-6 
-4.822850278006027e-6 
0.00015926877729644946 
-7.72087194074626e-5 
0.3013030446531653 
8.966900356762248e-6 
-1.7305954725270464e-5 
0.0006808805845193291 
3.0241858963041258e-6 
-0.00020122723128447443 
7.620829075174618e-5 
0.00011434831322658635 
0.0005973064284483818 
-2.084610001615564e-5 
-4.6869973373359326e-7 
-7.984393287739449e-6 
-4.6950326935938584e-5 
0.0010931367394281285 
-1.788586228934258e-6 
-4.106720275436636e-6 
-5.288569633638908e-6 
-3.8329382996091376e-5 
0.0011460734897359636 
0.08148760674360186 
-1.1100521301891732e-5 
8.197520681065907e-5 
0.00023768487371474825 
-4.93895122121623e-6 
-0.00010558111045751442 
0.0006188817367679331 
0.006249110001277737 
-4.962419559484906e-6 
2.9954720363448552e-6 
7.543675168938518e-5 
0.001115451056960766 
0.00035163375313178476 
-7.911199830982962e-6 
-1.2797093534254133e-5 
-0.00015031128157825307 
0.08148366474834642 
-2.111432259399237e-6 
0.0006804918811798103 
-4.781626431730245e-7 
4.122172079001981e-6 
-2.3250117961458597e-5 
0.0004929926638143166 
0.013468076952212828 
-3.2090872068811306e-6 
5.335425289769037e-5 
-0.00014449779996915033 
4.522983086568471e-6 
4.1406671191158485e-6 
8.477282261570843e-7 
0.00011534338347303418 
0.0004053088525374084 
1.9251120889814992e-6 
-6.512482279911414e-5 
0.0002883543403086403 
-1.555641805874885e-6 
-4.808227033377036e-6 
1.693771919360535e-5 
0.0001041536480408397 
-1.8304500856219026e-6 
-1.0712258664500277e-5 
-1.6400628426108673e-6 
4.0007934617180135e-5 
0.0016882172712682389 
0.3326391890881525 
-1.1568931061887177e-6 
0.0007354721139426346 
0.030305712343265335 
0.18299860084240763 
6.2801092854563525e-6 
2.7588132961873994e-6 
0.0001261837854631603 
0.0002494155536401393 
0.038867811604976474 
-4.9279513922756465e-6 
-0.00011875889719644546 
-0.00018939352524558007 
0.003280799449167027 
-0.0007902824061553862 
-1.2694193378462155e-5 
0.000530794763804076 
0.008854847523143975 
-4.563231068200668e-6 
6.656780267316707e-5 
-6.966896554033535e-5 
2.9223307309159122e-6 
-4.73077964780023e-6 
0.0019387610445205574 
-6.431827548098366e-6 
4.383398987858105e-5 
-0.0010452897501739523 
0.002144665180516352 
9.877257849243524e-5 
0.00027265213030855097 
-8.818930071202464e-5 
9.986787685811563e-6 
0.000341319691106937 
0.24873841900643104 
2.9105095275817714e-7 
3.100786055981013e-5 
0.004625444311577548 
0.00020195339430157226 
-0.00021474652825938863 
0.0010089422950138257 
-5.074972312755087e-7 
-4.175387723311917e-6 
-5.333127137451118e-6 
2.946010497142091e-6 
0.0001628539039246641 
0.10319777985898648 
1.177164335351803e-5 
0.00011092130701974828 
-0.00035145055463409007 
-1.2372698735133846e-6 
-3.62062064778937e-5 
0.0018676649074068487 
0.6285032922352657 
1.3823687516756624e-6 
0.0003237503199326063 
-0.00034087818899582525 
-1.5453055100888903e-6 
1.7232486732344042e-5 
1.6886687749774002e-5 
-4.130846038860947e-5 
8.158953220164896e-5 
-3.757188295783321e-8 
-2.5136190803130682e-5 
0.0003887802703867764 
0.04325062029290528 
-1.68363105353266e-6 
3.216992522794127e-6 
-0.00020350144000948864 
0.016726346113573296 
-1.6165815388641806e-6 
0.02047764579199989 
0.00016590429233544814 
-3.2819792389340895e-5 
-9.919324617751935e-5 
9.236135200520403e-8 
4.4103914863854694e-6 
-2.503779368710191e-6 
6.882824128106122e-6 
0.0002048069361683928 
7.154646890170296e-7 
2.524644953753715e-6 
-0.00020694976299133672 
0.002889869708894303 
8.066790681442535e-5 
-3.3030136392802265e-6 
-0.00017757912115309055 
0.17486769847629527 
-1.1469770055158531e-5 
4.397654170903572e-5 
5.489807002349942e-5 
0.0002477321640742889 
0.00022763917378738872 
-2.475851756840111e-6 
-5.4027468021356075e-5 
-6.9662646396915955e-6 
2.040634851699515e-5 
0.0001090111694660694 
-1.3854789763822368e-6 
-0.0001183235798678889 
0.006655488629837591 
-1.947414381780035e-5 
1.2124875146494383e-5 
4.862041250371664e-5 
-0.0004925289978669785 
0.0008979883691888666 
4.2202508087776266e-6 
-1.7722504787640873e-5 
4.371194091895337e-6 
4.3978712907253526e-5 
-7.843245941356768e-5 
5.600569586023475e-5 
-1.1189109968018626e-5 
0.1394576695613217 
0.33537510089289446 
0.20895211105550093 
-4.5666343256829825e-6 
5.239352366174357e-7 
-9.183874899124547e-7 
-1.7283433152862896e-5 
8.465783856767258e-5 
-2.3838029791761632e-5 
0.0003076181433729668 
-0.0014881304384630652 
0.0008073825284131164 
0.4702672548521877 
0.3872614971163905 
0.5203509662164056 
1.0051536999660252e-6 
1.3127603417838659e-6 
4.452522879357749e-6 
-9.990644423791646e-7 
-3.294039357700773e-5 
-1.9078641414832796e-5 
-1.6091354943018556e-6 
-0.0005805488489296201 
0.0009362583828706369 
0.08950328785669943 
0.20445185796869408 
4.750867623730839e-6 
-5.199823878876589e-6 
3.362025190183895e-5 
1.3032505956724913e-5 
-0.0002070762337346543 
-0.0012297325519699804 
0.6191381537487255 
0.5392360029540952 
0.016616387127284436 
0.059275255696074336 
0.019405533462708263 
-5.719670283765863e-6 
-6.180047950287751e-6 
1.4438071859330836e-5 
6.159153776249108e-6 
-4.869374492584426e-6 
1.037773789652762e-5 
-7.257915080851793e-6 
1.4832008457533567e-5 
-0.00016640341909634682 
-0.00033844871411151513 
0.00014196009445449848 
3.6382682725238226e-5 
0.000211241100674716 
-0.00018455887268714995 
-1.726094914609886e-6 
5.50057891976641e-7 
5.317098415362648e-7 
1.2749760459535244e-6 
6.9633446109986355e-6 
0.00019487561942140412 
-3.1002455976251974e-5 
-0.0002192688003014531 
1.7926758131460934e-5 
1.52346788667171e-6 
5.26726674683525e-7 
1.8092100138512265e-5 
9.2738489847789e-6 
-3.8200013397402e-5 
-1.925289264054667e-5 
-0.00014887170272251995 
0.00015297917170921507 
-8.44526982544361e-7 
2.6698973174175398e-6 
-3.9019412148982925e-7 
-2.551653188668927e-6 
9.721357228585346e-6 
-9.038972470380001e-5 
-1.7736810818509384e-5 
3.8775193010757686e-5 
-0.00037499273302839383 
0.0010678846675935727 
0.0008614530404252688 
0.25979651618267485 
0.13337737941583414 
0.10187124598777295 
-0.00013624826878100117 
-2.6791520525965414e-5 
0.00025843138702685305 
3.947599954138593e-5 
-0.00017537431671624135 
0.00038282596539186963 
1.6848978314561016e-6 
-4.778209253761406e-6 
6.048479425464405e-6 
1.0597726037636386e-5 
-1.6303662140575354e-5 
1.0916983426939738e-5 
0.00012024122272338995 
-5.905772656988424e-5 
3.5619107001666065e-5 
7.042845198006667e-5 
-5.6443391523417936e-5 
-0.0002903724629601543 
-1.6181041993251043e-6 
1.976449777502276e-6 
-2.286765329815763e-6 
1.8403529243461545e-6 
-9.576153178773308e-6 
-3.0979700986653037e-6 
8.626321562968661e-6 
0.0001508570126304313 
-4.936091871492565e-5 
-4.58930539922481e-8 
8.678147285341134e-5 
-9.75655199866596e-5 
1.1220912377365285e-6 
-8.852297491284922e-6 
-9.001332255519034e-5 
3.7197527205700086e-5 
0.00011469956496001168 
0.0004351838482656148 
4.229100037896843e-7 
-2.24802310228249e-6 
1.5269831597046618e-5 
-2.1232977207783693e-6 
1.5343844762771083e-5 
-2.259565564425341e-5 
-8.431713060425299e-6 
4.830675840985154e-6 
1.0402108408514194e-5 
2.7982300036881103e-5 
-3.678299128027007e-5 
2.147690080610263e-5 
0.0002000868041033046 
-4.884902756595629e-7 
2.217274162958229e-6 
6.226187839347285e-6 
-5.517890506410285e-6 
5.272665208459094e-5 
3.4104145542938965e-5 
0.0004672638365002056 
-0.00019483581903255784 
2.4897857662889883e-6 
6.85709856625223e-7 
3.6656811555890295e-6 
2.1263511891489727e-6 
4.044688523865621e-5 
-5.825413737472188e-5 
-0.002100617080203643 
0.00041691303353693515 
0.18703648648454937 
0.06488442983259164 
5.841506024162327e-6 
-2.8392523065841555e-6 
-2.007083966775069e-6 
1.6727728356574063e-5 
-7.987627755836313e-5 
4.5676336508109715e-5 
0.00098779119222925 
-0.0008570457855762179 
-0.0005746230921478733 
3.1509031012926405e-6 
-6.148504273439444e-7 
-7.703152823187548e-7 
0.012229137419361566 
0.002965307701065932 
-6.154981423506617e-7 
-7.438339758200473e-6 
8.860214517864271e-5 
-0.0003720171582426671 
7.617090476374866e-5 
0.0011694237168452157 
1.8297788261333138e-6 
-4.5759248784427665e-6 
4.348397902728959e-5 
-2.695760145516184e-5 
0.00011727666091815634 
-0.000512298278554071 
-0.00035483681151657576 
0.0008241801350063421 
4.497885510274629e-6 
-1.3184187293188588e-6 
-1.8626429962951271e-6 
-7.18634595034034e-6 
6.843628665085014e-6 
-3.317816599546332e-6 
-0.0002615075262069923 
9.772220543498844e-6 
0.00021345507963740622 
-0.00012306348706660626 
0.0002371751539781993 
-0.00030606805270277124 
-5.716301975942593e-7 
-6.066099632170195e-7 
-9.971193687310268e-7 
1.699252583800269e-5 
-2.0391583598608334e-6 
-3.523644840555477e-7 
2.2109298989311447e-6 
6.355546353766352e-6 
0.00019353863801035913 
-5.775473957876795e-5 
0.0004155025989888664 
-0.00011712568179519486 
1.4674930849231897e-6 
5.665876302251691e-7 
-2.167493236169994e-5 
-8.29023866567081e-6 
-1.4956581044462823e-5 
1.1050731503336004e-5 
-6.173163355857932e-5 
-0.00020142963689920968 
-0.00038951176472236447 
0.0007829903678889693 
-3.019184286526486e-6 
1.8903214283645034e-6 