# vtk DataFile Version 3.0 
Unstructured Grid 
ASCII 
DATASET UNSTRUCTURED_GRID
POINTS 2173 float 
-0.5 -0.5 0  
0.5 -0.5 0  
0.5 0.5 0  
-0.5 0.5 0  
-0.475 -0.5 0  
-0.45 -0.5 0  
-0.425 -0.5 0  
-0.4 -0.5 0  
-0.375 -0.5 0  
-0.35 -0.5 0  
-0.325 -0.5 0  
-0.3 -0.5 0  
-0.275 -0.5 0  
-0.25 -0.5 0  
-0.225 -0.5 0  
-0.2 -0.5 0  
-0.175 -0.5 0  
-0.15 -0.5 0  
-0.125 -0.5 0  
-0.1 -0.5 0  
-0.075 -0.5 0  
-0.05 -0.5 0  
-0.025 -0.5 0  
-1.3761214e-12 -0.5 0  
0.025 -0.5 0  
0.05 -0.5 0  
0.075 -0.5 0  
0.1 -0.5 0  
0.125 -0.5 0  
0.15 -0.5 0  
0.175 -0.5 0  
0.2 -0.5 0  
0.225 -0.5 0  
0.25 -0.5 0  
0.275 -0.5 0  
0.3 -0.5 0  
0.325 -0.5 0  
0.35 -0.5 0  
0.375 -0.5 0  
0.4 -0.5 0  
0.425 -0.5 0  
0.45 -0.5 0  
0.475 -0.5 0  
0.5 -0.475 0  
0.5 -0.45 0  
0.5 -0.425 0  
0.5 -0.4 0  
0.5 -0.375 0  
0.5 -0.35 0  
0.5 -0.325 0  
0.5 -0.3 0  
0.5 -0.275 0  
0.5 -0.25 0  
0.5 -0.225 0  
0.5 -0.2 0  
0.5 -0.175 0  
0.5 -0.15 0  
0.5 -0.125 0  
0.5 -0.1 0  
0.5 -0.075 0  
0.5 -0.05 0  
0.5 -0.025 0  
0.5 -1.3761214e-12 0  
0.5 0.025 0  
0.5 0.05 0  
0.5 0.075 0  
0.5 0.1 0  
0.5 0.125 0  
0.5 0.15 0  
0.5 0.175 0  
0.5 0.2 0  
0.5 0.225 0  
0.5 0.25 0  
0.5 0.275 0  
0.5 0.3 0  
0.5 0.325 0  
0.5 0.35 0  
0.5 0.375 0  
0.5 0.4 0  
0.5 0.425 0  
0.5 0.45 0  
0.5 0.475 0  
0.475 0.5 0  
0.45 0.5 0  
0.425 0.5 0  
0.4 0.5 0  
0.375 0.5 0  
0.35 0.5 0  
0.325 0.5 0  
0.3 0.5 0  
0.275 0.5 0  
0.25 0.5 0  
0.225 0.5 0  
0.2 0.5 0  
0.175 0.5 0  
0.15 0.5 0  
0.125 0.5 0  
0.1 0.5 0  
0.075 0.5 0  
0.05 0.5 0  
0.025 0.5 0  
1.3761214e-12 0.5 0  
-0.025 0.5 0  
-0.05 0.5 0  
-0.075 0.5 0  
-0.1 0.5 0  
-0.125 0.5 0  
-0.15 0.5 0  
-0.175 0.5 0  
-0.2 0.5 0  
-0.225 0.5 0  
-0.25 0.5 0  
-0.275 0.5 0  
-0.3 0.5 0  
-0.325 0.5 0  
-0.35 0.5 0  
-0.375 0.5 0  
-0.4 0.5 0  
-0.425 0.5 0  
-0.45 0.5 0  
-0.475 0.5 0  
-0.5 0.475 0  
-0.5 0.45 0  
-0.5 0.425 0  
-0.5 0.4 0  
-0.5 0.375 0  
-0.5 0.35 0  
-0.5 0.325 0  
-0.5 0.3 0  
-0.5 0.275 0  
-0.5 0.25 0  
-0.5 0.225 0  
-0.5 0.2 0  
-0.5 0.175 0  
-0.5 0.15 0  
-0.5 0.125 0  
-0.5 0.1 0  
-0.5 0.075 0  
-0.5 0.05 0  
-0.5 0.025 0  
-0.5 1.3761214e-12 0  
-0.5 -0.025 0  
-0.5 -0.05 0  
-0.5 -0.075 0  
-0.5 -0.1 0  
-0.5 -0.125 0  
-0.5 -0.15 0  
-0.5 -0.175 0  
-0.5 -0.2 0  
-0.5 -0.225 0  
-0.5 -0.25 0  
-0.5 -0.275 0  
-0.5 -0.3 0  
-0.5 -0.325 0  
-0.5 -0.35 0  
-0.5 -0.375 0  
-0.5 -0.4 0  
-0.5 -0.425 0  
-0.5 -0.45 0  
-0.5 -0.475 0  
-0.002115384 -0.00023065208 0  
-0.20714286 -0.20714286 0  
0.20714286 -0.20714286 0  
0.20714286 0.20714286 0  
-0.20714286 0.20714286 0  
-0.28155318 -0.0017231192 0  
0.0017231192 -0.28155318 0  
0.28155318 0.0017231192 0  
-0.0017231192 0.28155318 0  
0.3319978 -0.33098683 0  
0.33098683 0.3319978 0  
-0.3319978 0.33098683 0  
-0.33098683 -0.3319978 0  
-0.14015679 -0.06698606 0  
0.06698606 -0.14015679 0  
0.14015679 0.06698606 0  
-0.06698606 0.14015679 0  
-0.1387125 -0.34573975 0  
0.34573975 -0.1387125 0  
0.1387125 0.34573975 0  
-0.34573975 0.1387125 0  
0.14046866 -0.34602854 0  
0.34602854 0.14046866 0  
-0.14046866 0.34602854 0  
-0.34602854 -0.14046866 0  
-0.05869875 -0.16617337 0  
0.18217777 -0.061504476 0  
0.062312964 0.18362015 0  
-0.18362015 0.062312964 0  
-0.034321424 -0.38563195 0  
0.38563195 -0.034321424 0  
0.034321424 0.38563195 0  
-0.38563195 0.034321424 0  
0.39586002 -0.2428538 0  
0.2428538 0.39586002 0  
-0.39586002 0.2428538 0  
-0.2428538 -0.39586002 0  
0.23688246 -0.38952246 0  
0.38952246 0.23688246 0  
-0.23688246 0.38952246 0  
-0.38952246 -0.23688246 0  
-0.24287231 -0.09948847 0  
0.09948847 -0.24287231 0  
0.24287231 0.09948847 0  
-0.09948847 0.24287231 0  
-0.11560815 -0.24300627 0  
0.24300627 -0.11560815 0  
0.11560815 0.24300627 0  
-0.24300627 0.11560815 0  
-0.40192315 -0.4008276 0  
0.4008276 -0.40192315 0  
0.40192315 0.4008276 0  
-0.4008276 0.40192315 0  
0.06409326 -0.40289903 0  
0.40289903 0.06409326 0  
-0.06409326 0.40289903 0  
-0.40289903 -0.06409326 0  
0.2962961 -0.23982804 0  
0.23982804 0.2962961 0  
-0.2962961 0.23982804 0  
-0.23982804 -0.2962961 0  
-0.28087237 -0.21196799 0  
0.21196799 -0.28087237 0  
0.28087237 0.21196799 0  
-0.21196799 0.28087237 0  
-0.0901279 0.007867504 0  
-0.05002927 -0.07494272 0  
0.0873353 -0.009871756 0  
0.0071518295 0.09216282 0  
-0.14120433 -0.1484696 0  
-0.14581114 0.13960092 0  
0.1458264 -0.14505939 0  
0.13960092 0.14581114 0  
0.41838804 -0.3182741 0  
0.3182741 0.41838804 0  
-0.41838804 0.3182741 0  
-0.3182741 -0.41838804 0  
0.32118136 -0.41712493 0  
0.41712493 0.32118136 0  
-0.32118136 0.41712493 0  
-0.41712493 -0.32118136 0  
-0.19707234 -0.014843048 0  
0.018050108 -0.20183705 0  
0.19707234 0.014843048 0  
-0.014843048 0.19707234 0  
-0.10938372 -0.41847488 0  
0.41847488 -0.10938372 0  
0.10938372 0.41847488 0  
-0.41847488 0.10938372 0  
0.15773043 -0.4267032 0  
0.4267032 0.15773043 0  
-0.15773043 0.4267032 0  
-0.4267032 -0.15773043 0  
-0.3204562 -0.07174808 0  
0.07174808 -0.3204562 0  
0.3204562 0.07174808 0  
-0.07174808 0.3204562 0  
0.02801032 -0.07269879 0  
-0.31817523 0.069836795 0  
-0.069836795 -0.31817523 0  
0.31817523 -0.069836795 0  
0.069836795 0.31817523 0  
0.43106207 -0.17757268 0  
0.17757268 0.43106207 0  
-0.43106207 0.17757268 0  
-0.17757268 -0.43106207 0  
0.0703783 0.071201205 0  
-0.051593844 0.064346604 0  
0.099701226 -0.08333426 0  
0.2863281 -0.17248559 0  
0.17248559 0.2863281 0  
-0.2863281 0.17248559 0  
-0.17248559 -0.2863281 0  
-0.2341888 0.04979648 0  
-0.049194112 -0.231281 0  
0.23358595 -0.04946041 0  
0.04979648 0.2341888 0  
-0.009939441 -0.13691185 0  
-0.26560438 -0.17864102 0  
0.17864102 -0.26560438 0  
0.26560438 0.17864102 0  
-0.17864102 0.26560438 0  
0.013302229 -0.43510666 0  
0.43510666 0.013302229 0  
-0.013302229 0.43510666 0  
-0.43510666 -0.013302229 0  
0.09432827 0.114700764 0  
-0.11539384 0.093188405 0  
-0.3413634 -0.005100272 0  
0.005100272 -0.3413634 0  
0.3413634 0.005100272 0  
-0.005100272 0.3413634 0  
-0.19817708 -0.3508856 0  
0.3508856 -0.19817708 0  
0.19817708 0.3508856 0  
-0.3508856 0.19817708 0  
-0.34100306 -0.27216324 0  
0.27216324 -0.34100306 0  
0.34100306 0.27216324 0  
-0.27216324 0.34100306 0  
-0.20269383 -0.14403741 0  
0.14393912 -0.2028372 0  
0.2026342 0.14393856 0  
-0.14393856 0.2026342 0  
-0.1030633 -0.10524017 0  
-0.4394695 -0.104853734 0  
0.104853734 -0.4394695 0  
0.4394695 0.104853734 0  
-0.104853734 0.4394695 0  
-0.44156647 -0.44156647 0  
0.44156647 -0.44156647 0  
0.44156647 0.44156647 0  
-0.44156647 0.44156647 0  
-0.2683254 -0.44465622 0  
0.44465622 -0.2683254 0  
0.2683254 0.44465622 0  
-0.44465622 0.2683254 0  
0.2654342 -0.4435478 0  
0.4435478 0.2654342 0  
-0.2654342 0.4435478 0  
-0.4435478 -0.2654342 0  
-0.27373606 -0.34534052 0  
0.34534052 -0.27373606 0  
0.27373606 0.34534052 0  
-0.34534052 0.27373606 0  
-0.05307205 -0.4481981 0  
0.4481981 -0.05307205 0  
0.05307205 0.4481981 0  
-0.4481981 0.05307205 0  
-0.35614902 -0.19390328 0  
0.19390328 -0.35614902 0  
0.35614902 0.19390328 0  
-0.19390328 0.35614902 0  
-0.14022674 -0.012452113 0  
0.14171903 0.011271359 0  
-0.01125192 0.14089845 0  
-0.19556868 -0.06932378 0  
0.070511825 -0.19668652 0  
0.19556868 0.06932378 0  
-0.06932378 0.19556868 0  
-0.24951252 -0.039742906 0  
0.04037078 -0.2503529 0  
0.24951252 0.039742906 0  
-0.039742906 0.24951252 0  
0.44100407 -0.36164257 0  
0.36164257 0.44100407 0  
-0.44100407 0.36164257 0  
-0.36164257 -0.44100407 0  
-0.4451273 -0.36589316 0  
0.36589316 -0.4451273 0  
0.4451273 0.36589316 0  
-0.36589316 0.4451273 0  
0.1121834 -0.30242515 0  
0.30242515 0.1121834 0  
-0.1121834 0.30242515 0  
-0.30242515 -0.1121834 0  
-0.115146436 -0.19087775 0  
0.19190264 -0.11309679 0  
0.11520548 0.19263776 0  
-0.19263776 0.11520548 0  
-0.08287991 -0.37025127 0  
0.37025127 -0.08287991 0  
0.08287991 0.37025127 0  
-0.37025127 0.08287991 0  
0.23791528 -0.24381089 0  
0.24381089 0.23791528 0  
-0.23791528 0.24381089 0  
-0.24381089 -0.23791528 0  
-0.44626984 -0.21174923 0  
0.21174923 -0.44626984 0  
0.44626984 0.21174923 0  
-0.21174923 0.44626984 0  
0.35174853 -0.37705234 0  
0.37705234 0.35174853 0  
-0.35174853 0.37705234 0  
-0.37705234 -0.35174853 0  
-0.048605647 -0.023262763 0  
-0.1551113 -0.21381997 0  
0.21381997 -0.1551113 0  
0.1551113 0.21381997 0  
-0.21381997 0.1551113 0  
-0.29403278 -0.30027482 0  
0.30027482 -0.29403278 0  
0.29403278 0.30027482 0  
-0.30027482 0.29403278 0  
0.12173745 -0.390654 0  
0.390654 0.12173745 0  
-0.12173745 0.390654 0  
-0.390654 -0.12173745 0  
-0.12236246 -0.2979882 0  
0.2979882 -0.12236246 0  
0.12236246 0.2979882 0  
-0.2979882 0.12236246 0  
-0.0945969 -0.046371013 0  
0.035276897 -0.027358124 0  
-0.0076714605 0.051946 0  
-0.30809116 -0.17165439 0  
0.17165439 -0.30809116 0  
0.30809116 0.17165439 0  
-0.17165439 0.30809116 0  
-0.16592422 -0.10879113 0  
0.10700909 -0.1687818 0  
0.16864619 0.10664837 0  
-0.10664837 0.16864619 0  
-0.16784625 -0.38069874 0  
0.38069874 -0.16784625 0  
0.16784625 0.38069874 0  
-0.38069874 0.16784625 0  
-0.4563872 -0.05993889 0  
0.05993889 -0.4563872 0  
0.4563872 0.05993889 0  
-0.05993889 0.4563872 0  
0.31103167 -0.37412483 0  
0.37412483 0.31103167 0  
-0.31103167 0.37412483 0  
-0.37412483 -0.31103167 0  
-0.3909646 -0.012754724 0  
0.012754724 -0.3909646 0  
0.3909646 0.012754724 0  
-0.012754724 0.3909646 0  
0.44915667 -0.21679194 0  
0.21679194 0.44915667 0  
-0.44915667 0.21679194 0  
-0.21679194 -0.44915667 0  
0.045831423 0.12033131 0  
-0.12662303 0.045442794 0  
-0.3107799 -0.37355793 0  
0.37355793 -0.3107799 0  
0.3107799 0.37355793 0  
-0.37355793 0.3107799 0  
0.04152367 0.021693805 0  
-0.08040017 -0.2675595 0  
0.26794365 -0.08044455 0  
0.080500565 0.2680441 0  
-0.2680441 0.080500565 0  
-0.13753757 -0.45578164 0  
0.45578164 -0.13753757 0  
0.13753757 0.45578164 0  
-0.45578164 0.13753757 0  
-0.05507968 -0.12135967 0  
0.14172421 -0.09428923 0  
0.2571752 -0.19664502 0  
[...]
POINT_DATA 2173 
SCALARS T float 
LOOKUP_TABLE default 
5.448225156815194e-19 
-4.292853695475714e-18 
-3.2640627542588284e-18 
-3.8680876483071856e-20 
1.0404550495663496e-17 
5.967931500301023e-18 
2.1601356410675736e-17 
2.611264105063305e-17 
4.2803185686349004e-17 
3.7862492325983393e-17 
5.0770226598298064e-17 
6.521299167855265e-17 
8.841374090776688e-17 
4.0509179461451776e-17 
1.9992003438020447e-17 
2.3937503777209483e-17 
3.385653774151087e-17 
5.474585441758029e-17 
2.137714538487124e-17 
2.6075386878590012e-17 
2.3728370382049302e-17 
6.10930521923797e-17 
-6.379652682665277e-17 
-6.0355420763863215e-18 
7.254568067947866e-17 
-1.5455594307386267e-16 
2.423966893509375e-16 
-1.7199891686459387e-16 
-1.0574013634840104e-16 
-8.521084923114049e-19 
-1.3759253795369323e-16 
1.3720577049589873e-16 
-3.0925061957024505e-17 
-2.547891807583778e-16 
2.7921888697130856e-16 
-5.126916630626042e-16 
2.2673140169658593e-18 
2.1371161742090524e-17 
-6.636543857198392e-17 
-8.603120328705765e-17 
-8.389272495354546e-17 
-2.6413378886174863e-17 
8.353184408146131e-17 
-1.0032798514918472e-16 
-7.530525334745772e-17 
-9.716423736677816e-17 
-5.3186942190328187e-17 
1.9534046015380537e-16 
3.4763780010776246e-16 
-7.503535669844437e-17 
-3.965220395387956e-16 
-6.6973297489157e-16 
3.279207201400003e-16 
2.01626865679567e-16 
-2.6445333956983447e-16 
2.951106188407586e-16 
-6.827230208935628e-16 
-1.1083788178957615e-16 
5.031191595588522e-18 
-3.119758395255478e-16 
-1.0676740462757552e-16 
-2.2377888262197664e-16 
1.3630310920864447e-16 
2.3918073148280602e-17 
-3.360789736681407e-16 
9.386139984853852e-16 
-2.130598071080094e-15 
-3.6342581966690396e-16 
-4.7263507301355715e-16 
-1.468300466149422e-16 
-1.7155234085715826e-16 
3.7718729209071157e-16 
-3.403506560568202e-16 
-3.8062027629217626e-16 
-1.3881582727823479e-15 
-3.1916766844921625e-16 
-3.3393856437147445e-16 
1.2336731977547407e-17 
7.565429102127113e-18 
8.429958492623879e-17 
2.4712442470932558e-17 
-1.2100694403714314e-17 
7.781238230534944e-18 
2.3166657875446176e-17 
-1.3331997331677395e-16 
6.295652228314232e-17 
2.6374999541604148e-17 
1.5868139473749043e-16 
-2.0711976302730657e-16 
6.196847396079335e-16 
-7.137191320294708e-16 
4.0187779536213763e-16 
1.5326237684693847e-17 
6.043567595483695e-17 
-5.053195844987454e-17 
9.416570713092153e-17 
-1.704058756770498e-19 
1.9583449658259487e-17 
-1.3923320075088027e-17 
7.583998807587844e-18 
3.1142180587001184e-18 
-6.230118415366585e-18 
4.673822225435779e-18 
-2.976471504690303e-18 
-1.0710698228861156e-18 
-4.458128531493107e-18 
1.0805402189864095e-18 
-1.3506506414451319e-18 
3.6578141079796004e-18 
-2.364510455629828e-18 
4.92635098565516e-18 
-1.6333790346252617e-18 
2.493757395334924e-18 
5.667604116257135e-18 
-9.471702579076685e-18 
2.1189002521684694e-18 
-8.028536195548339e-19 
1.1011673977377018e-18 
-1.320017978952186e-17 
6.013119299384548e-19 
2.9263890475200273e-18 
-2.4660489292794994e-18 
2.40242824242175e-19 
1.6362980908222052e-17 
1.723070776817334e-19 
6.835129561238163e-18 
7.709362287468057e-18 
5.97484799645656e-18 
5.872521560269192e-18 
-3.8845850185313824e-18 
3.4445576391234396e-18 
1.6388623245026893e-19 
1.1254686418756565e-18 
1.3405596648746154e-18 
5.376432111476565e-18 
2.5929410959623398e-18 
7.934337668356524e-18 
-9.926189338716998e-18 
5.9374900645847954e-18 
7.92240157590167e-18 
-7.025754623278463e-18 
1.0867307757559456e-17 
-1.6816198209619573e-17 
1.1016499630165879e-17 
-2.3290233181252244e-17 
6.213430594481864e-20 
5.5093286950301436e-18 
3.4285887958435703e-19 
5.474463074019753e-18 
3.7106921741177995e-18 
3.092716139880818e-17 
-1.3958714652386156e-17 
2.3147349789118227e-17 
-2.3800003643517872e-17 
-2.7245571844366895e-18 
-2.0637075764987568e-17 
-2.3374509114122706e-17 
-1.0711274142900916e-17 
-7.052569746448854e-18 
-8.78401389897054e-18 
5.0263976650232995e-6 
-2.044358218692239e-8 
9.68694134555588e-5 
0.2076910349176263 
-2.537614119571058e-6 
-1.3128131406346078e-5 
-2.3034375712204336e-5 
-0.0014241344112240865 
0.029857360706249454 
3.121136492822246e-5 
8.784987003411317e-5 
8.151758636766429e-7 
-1.812415502954696e-5 
-3.065843680658519e-5 
-9.617712454736234e-5 
0.010817094304758686 
0.00028686379141392224 
-7.673173523982151e-5 
0.0009756378870525428 
0.03808554681330729 
4.8019630720460166e-6 
0.00026585535422078227 
-0.003911142518714958 
8.420698445470106e-7 
-1.369913416682306e-5 
5.9655912512529505e-5 
-0.0007134050783976929 
0.29967292082905883 
-8.087130695067969e-8 
2.9814189111171058e-5 
-0.0006440027960859169 
0.0010464587407180927 
7.539290314308411e-7 
0.0002134712151469272 
0.0008745285909100874 
-5.212977430129486e-6 
9.651223529333528e-6 
-0.00014162703562575578 
-0.000523610041592889 
-3.985352372139594e-6 
-6.429823244376975e-6 
1.1182454476908649e-8 
-0.0001643773860285449 
0.0033831029337078873 
5.4185746809294524e-5 
-8.083997851307122e-6 
-0.0008187496307319898 
0.5828276805981136 
-1.2382525709989182e-6 
5.26153691804363e-6 
-7.193635828941415e-5 
0.00037485699560714714 
4.718214747434032e-6 
0.0001552789938590897 
0.0005709588241146423 
-2.9799754537181363e-5 
-9.482011633249218e-6 
-0.00016594398014005315 
0.022737631078834312 
9.344051814199815e-7 
-2.3119097398770605e-5 
1.7474905064985792e-5 
-0.00025511876735314455 
0.010106669926462601 
6.537975944946972e-8 
-1.8293996876667844e-6 
3.0797102386584633e-5 
-0.00030227442702024506 
0.004692332589685124 
-3.5140353051057504e-5 
-4.331102151821208e-7 
0.00039598548390567406 
0.2734723360823001 
-2.234520038208358e-5 
0.0002762637005623543 
2.4658273939621095e-6 
-8.022364676479895e-6 
-0.0002443575958847246 
-0.000908172942830053 
-2.1797149635177902e-6 
-1.0951580241980835e-5 
-8.074481230578325e-6 
-4.356449701644822e-5 
-0.00025727317834035017 
0.028152332793332596 
3.644909216638389e-5 
0.0001467619111015947 
0.00023569341151447344 
-9.056305005068182e-7 
-2.2382868514302977e-5 
-0.0008105123251104549 
-9.136977963494099e-7 
6.177236251981078e-6 
1.2370884807590465e-5 
0.00014859501873844754 
-0.0025222625417265464 
2.4934377891775714e-5 
0.0002190543459923163 
-1.350115187730833e-6 
-4.954651423236652e-5 
-0.0004898048966371562 
0.08126814989079406 
0.00047975879887091446 
0.00010385207496135507 
3.2107219062967504e-6 
-2.658863567209174e-6 
0.008413128738692693 
6.015835670043986e-6 
-0.000244340048172137 
0.0008264990915212335 
0.18880243539481126 
-1.9296498470489977e-6 
-1.140190561160152e-5 
-7.648109229583281e-6 
4.9482582120294356e-5 
-0.0027170263669649675 
0.2761173361261658 
0.00011207656967243774 
-1.9268362338892196e-5 
-8.3588855308008e-5 
0.01674505946473363 
-7.744376213485161e-8 
6.360108036297287e-5 
0.0003710963396958928 
-4.310138528020721e-5 
1.4100406697638353e-6 
0.09176964469647586 
-8.669316910174654e-7 
7.189753128221947e-6 
9.217430071705368e-5 
-0.0006591975341398243 
0.003502266304729054 
-5.446628885434684e-5 
0.0010928151690964146 
0.009744251781115293 
5.1583531365546015e-6 
-3.290116594010798e-5 
-2.0272374326603458e-5 
6.754504612748262e-5 
1.8414908343865004e-6 
1.2372525068049796e-5 
0.0002981943290395635 
0.10073019455654952 
-9.339166739324538e-6 
-5.145507352164628e-6 
-1.0415063835186224e-5 
-0.0001537332182004643 
-0.000491189772265922 
5.947456749174034e-7 
1.015173875614916e-5 
-8.11152723120319e-5 
0.00010081752535930068 
1.7366605549915688e-6 
-4.1556791797029676e-5 
0.00037087286545542283 
0.00045985204150803487 
7.162074306551535e-7 
1.039932699138181e-5 
-0.0005211281654117121 
-2.8979339712682675e-6 
-8.297748316660945e-6 
-1.9030592697873022e-5 
3.91287685503063e-5 
0.0024865402180963975 
2.467076113200763e-6 
2.1049077340252093e-5 
0.00010185364813014359 
-2.2471691794623182e-5 
-1.2740172521312532e-6 
-2.381680218874449e-5 
-0.00041281120809162717 
0.0010442993513462408 
1.1456821864009584e-6 
-3.6416118621719765e-5 
-0.0025400871698438815 
0.011361551936842832 
-1.801001923933481e-5 
0.00013453730756809616 
0.00572915853043288 
0.000935340264898856 
2.067574179300785e-6 
5.27299549419637e-5 
0.005876706007770467 
0.008499396142986474 
8.651305551199983e-5 
0.00017738831443393324 
2.368582876075364e-6 
1.2978448650634412e-5 
-3.5257990985714546e-9 
-1.0843168410541629e-5 
-3.901966337019513e-5 
9.283962808640399e-7 
-0.00021790269781367445 
-0.00035125072868166264 
-3.222852290579847e-5 
-2.245682584039977e-6 
1.7915421175545744e-5 
-0.0007538657358785762 
0.5847456492593841 
-2.405824132358036e-6 
-2.939139097514924e-5 
0.0005178127375619744 
0.009147162760750678 
6.194900083303189e-6 
0.00023076190771235855 
0.05101415273752922 
-2.029343098262193e-6 
1.1673549639480864e-5 
1.2508914324144003e-5 
7.401337027495444e-5 
0.00016526380725050095 
7.229607806436747e-7 
-0.0002958462516198754 
-0.0001873823099370821 
-1.8432994480336781e-6 
2.4123346908699408e-5 
3.9747449163182075e-6 
2.5410935960531252e-5 
-0.0010354335011412204 
0.5697595712890304 
2.6238215390683043e-7 
-8.559376999607524e-6 
-8.304655890198448e-5 
0.001675447890805012 
-6.491664671519964e-7 
-3.707937126267769e-5 
0.00026768823876559185 
-2.925615258633258e-6 
-1.7668754727487024e-5 
-7.241253877293453e-5 
0.0010698433638792835 
0.22467014590660833 
1.8579685344754479e-6 
2.0908189339529156e-5 
0.0003461780429742156 
0.00015325741131952435 
7.632365250966755e-7 
-0.0001787192025573615 
0.0012647500968497741 
9.053191464579847e-7 
-7.785502513467462e-7 
-0.00014767555218490349 
0.06126377307302309 
-1.9120961361602524e-5 
3.5108958734825446e-5 
-6.080123529808286e-5 
0.004183997558060893 
-2.0178810663160813e-6 
-1.8008373458796637e-5 
-1.3206001231481605e-5 
0.000632754315963945 
-2.671438363717468e-6 
-0.00017995829855540352 
-0.0007676326449142326 
-3.717861599402505e-6 
-1.2337699753762244e-5 
-6.4016274990029356e-6 
-0.00015773751808940596 
0.0011536450947865306 
-7.582689134819862e-5 
0.00017265725465159194 
2.1001566149605117e-5 
2.6286649606898764e-6 
-1.7021672356175864e-5 
0.04477978757975079 
6.984945988618418e-6 
-3.822467468442243e-6 
-0.00010641901809701901 
8.188169007543615e-5 
-1.8265599264248219e-6 
0.0002938932411480721 
-9.042954068579695e-5 
0.0012086014032196691 
0.325335656123934 
-4.252367568899253e-6 
-2.1838168106040515e-5 
-7.492144341953032e-5 
9.32284741673054e-6 
-5.701547012974221e-6 
5.7329832405057066e-5 
8.915716361242699e-5 
-0.0003936699051794254 
0.20008323835429903 
3.1300640628742335e-6 
1.2670979794003262e-5 
-0.0008809040871779075 
-3.4057800338470083e-6 
2.5861974484484614e-5 
-0.0004965035047673695 
-0.00019507235523191977 
-4.089678710280928e-7 
-0.00013824357331713674 
-6.322931158055303e-5 
-2.015057922678699e-6 
2.1043164033476806e-5 
-0.00011363440560847696 
0.00019141977189636946 
-4.494515857823285e-6 
-7.290032134410957e-6 
0.0021784826017647845 
0.0007592770044192279 
-1.9355820544543343e-5 
-0.00010373341921455056 
0.003442588137284181 
0.0004550327205489531 
-2.3609059097773313e-6 
0.00016805908413469186 
-7.08189641565684e-5 
-7.659078929172468e-5 
0.0031437713074154005 
0.140610870923993 
1.022914251610869e-5 
2.838427861868763e-6 
-7.497389229960758e-5 
0.001422304969771612 
0.07661653312067124 
1.4966332436283464e-5 
-6.125160286721905e-5 
-6.207895907018739e-5 
3.500255585582172e-6 
-0.0002721934735438215 
0.00033216736321008014 
-7.302857531410082e-5 
-0.004662231071252992 
-2.7627020428058576e-6 
9.270337822800925e-6 
6.7073146582818025e-6 
-0.00023890901527827229 
0.00044374781550165024 
2.380080723676957e-6 
1.740924679055865e-5 
-3.076803428148763e-6 
-6.799765865748311e-5 
0.0012079566841725646 
0.016726188753580354 
-9.19433432839833e-6 
0.0001984619143621031 
2.1869831954814288e-5 
-2.2587465609369196e-6 
2.354508646641981e-5 
0.002673020814648597 
2.9727627096517348e-5 
-2.1066497143799256e-6 
-3.980757839325554e-6 
-0.0001745765516277498 
0.0009944181173511387 
-2.9377279590465485e-5 
-2.476956749676281e-5 
-2.49451384619211e-6 
-0.0004143665837560061 
0.34600022052620577 
0.00017287776532921585 
5.8209253481297114e-5 
-2.2856595570495274e-6 
-2.0798197152453537e-6 
-6.210586935646736e-5 
0.0007416068323206173 
0.007275430065100202 
-2.2037744594872428e-6 
1.1698013569451647e-5 
-4.300365556893808e-5 
-6.581109361419294e-6 
-5.418324529531274e-6 
-5.364152343225244e-7 
-4.459165899348757e-6 
0.0011532853894020683 
6.799862978449753e-7 
5.336434610290406e-5 
9.341807818296075e-5 
-5.6763565433920145e-6 
-3.0789160630509162e-6 
-9.802525507281263e-5 
5.081389872621762e-5 
-6.093944039033847e-6 
-6.320546911897278e-7 
-6.574414415421537e-7 
-9.127106229544002e-5 
0.0029025276844131713 
0.09590791392126558 
1.66318844361418e-5 
-0.0004055102970945875 
0.004155726742452242 
0.2671769462999688 
6.072144122423283e-6 
5.902691326092402e-7 
6.203299876990045e-5 
0.0040343327411352 
0.0024361833070604224 
2.752948722878074e-6 
-8.553017406493644e-5 
0.00041507204935515766 
0.0003849515503052328 
-0.00036395872503989477 
7.311872736683747e-6 
0.0001056844759383435 
0.0522959635167515 
2.591188929376107e-6 
-1.85906788589418e-5 
8.425236492676115e-5 
4.113678663548331e-6 
-1.6475680281225944e-5 
0.0017591863718268593 
-6.199990249646459e-7 
0.0009756556787812097 
0.02253999880850569 
-8.528590811407012e-6 
0.00010326397181597225 
0.0006041157400335561 
-7.07011588432289e-6 
3.0683932253744055e-6 
0.0015626631148158905 
0.45357928257261304 
-1.066235321120058e-6 
3.180966786488443e-5 
0.02308144026480482 
-9.715884743957341e-6 
7.141011459075038e-5 
0.004555957380963743 
-9.425568300269499e-7 
-6.363110293861279e-6 
4.373815574977974e-6 
-2.7870795292867022e-5 
0.0015845825858881325 
0.05816477671151573 
-2.1097867590269603e-5 
2.76261251943149e-5 
0.0008811923898371367 
2.458366157341558e-7 
1.1905812845059096e-5 
-0.0005199665104863962 
0.5134563272085669 
3.367788120044902e-6 
0.0001262643398498749 
0.0030290554597557705 
-4.145486413082902e-6 
-1.3551399338880827e-7 
-4.256956038231029e-5 
0.0008313805655726958 
0.00031083255422405275 
5.006748257104211e-6 
1.7996154909615437e-6 
0.0006252792663956604 
0.06244746754643845 
1.4716523399447683e-6 
2.6930115832418782e-5 
0.0001390799961531797 
0.04695060423257836 
-7.423254882125886e-7 
0.0691193617140974 
-9.03298191676179e-6 
2.805915960234735e-5 
0.00025299725173744147 
1.265826684766459e-6 
1.1322619934148067e-6 
-3.580912395493496e-6 
-2.737460364031115e-7 
4.056509047163641e-5 
-2.3637021081141626e-6 
4.669111529598109e-6 
0.0004374246797888997 
0.013917085529687213 
-8.521485076127942e-6 
1.0065821213656738e-5 
0.00046307532081562165 
0.08089343348692571 
-9.553453389683663e-6 
0.0001575609789334237 
-6.730811552194773e-5 
0.0005728532753315041 
0.00020028079973933015 
-4.039225757820134e-6 
-6.959048114808174e-6 
2.2421934379893934e-5 
-0.0005771265109215426 
-0.00029183036022722433 
1.9918075929328117e-6 
-5.735043411136569e-5 
0.08242563482257864 
-6.095049470428984e-7 
-1.8656066903467882e-5 
2.245103767311871e-5 
-0.000402130515508958 
-3.5770077543364164e-5 
8.52088616177501e-6 
2.3306372361354075e-5 
-6.0533762095248187e-5 
2.363677417278362e-6 
0.00015409982431653557 
0.0009382207667528455 
0.00021198378004836372 
0.47547885484513147 
0.6287056172434431 
0.5277330802508847 
-4.0900283991306515e-6 
-7.104105820444459e-7 
5.1303444655129814e-6 
-6.211799204126691e-5 
6.810901582569788e-5 
4.6230630004689855e-6 
0.0003635143058033613 
-0.0007548872658305601 
0.0019604861343191886 
0.21167605003509357 
0.2212348889888297 
0.31963084698369226 
-6.065466918563087e-6 
-8.311976009194769e-7 
9.991557404892721e-6 
1.5693114689107292e-5 
-1.7256870095342044e-5 
-2.4628790568435084e-6 
-1.733628673229879e-6 
0.000401763690024095 
0.0002478055426123287 
0.3386650920737523 
0.44999028657215767 
-7.031004786753741e-6 
-3.6974177084873144e-6 
-4.3012512686464186e-5 
8.72197235275585e-6 
0.0010213846687546749 
-0.0009831932878483036 
0.3946933490745334 
0.4324067971071605 
0.033109956171723576 
0.07438794586271179 
0.024598215109936573 
-1.4479151697898748e-5 
-4.70705465800572e-6 
3.609135585061881e-5 
2.0600183066044894e-5 
7.255750764548832e-6 
2.1686012355890334e-5 
-4.415528443100942e-6 
-2.5404623911963258e-5 
-0.0004044553803769061 
-0.000371421132824604 
0.00042462374873978643 
-0.0004885101495299614 
-0.00016441111959145067 
0.000381924191227447 
2.8420520770854313e-6 
9.58249398343357e-7 
3.1096759682210605e-6 
-7.175013331984136e-8 
1.5325650232602296e-5 
-5.573568514835972e-5 
5.149789115448307e-5 
4.847691658618827e-6 
-4.973445076007659e-6 
2.475645187314219e-6 
-5.873425771049024e-7 
2.3286639672266786e-5 
1.4473736626278699e-5 
0.0002659824887040178 
-4.2445339875185515e-5 
-4.282111833655713e-5 
4.154992006552536e-5 
6.306275044861964e-6 
3.121925975558262e-7 
2.4125744405506574e-6 
7.86809928977219e-8 
-2.2996914364103587e-6 
0.00014299301637653322 
-3.815986005332145e-5 
-3.950995874679167e-5 
-0.0035463861626189312 
0.0011906672353234845 
0.001115258537684016 
0.057073104462108455 
0.022268843905378848 
0.013284282496400991 
-0.00029314753366640464 
0.0002216450545915116 
-0.00014490733715166225 
-0.00030799936130443607 
-9.654500638795386e-5 
0.00029655918904365487 
-1.7542366840737649e-6 
-1.295173973139289e-7 
3.2969843741752255e-6 
4.5669276245615866e-5 
2.7790874990977924e-6 
2.8106948090579398e-5 
0.00023456403715808947 
-9.001628548614492e-5 
-0.00011588711821293395 
0.0006547650014392453 
-0.00031887224911692196 
0.00025663651933090296 
-2.1315487618167147e-6 
3.5329493051471378e-6 
-9.502483117453441e-7 
-1.1284396463460813e-5 
-8.435862787526949e-6 
2.5784931296838685e-6 
2.5361553649459313e-5 
0.00017903117172712827 
0.00022941140786360037 
1.7321043782205457e-6 
0.00010619491398706396 
0.00012824112979904596 
1.2000605456437337e-7 
-1.7024525257795573e-5 
-0.00029909857767646664 
-9.94127177478875e-6 
-7.111141197670826e-5 
-0.00019376053598136093 
1.9378906803132553e-7 
-2.6920628757533207e-6 
1.5025223253313537e-5 
-5.68233461523098e-6 
1.5716309172486017e-5 
6.713049084201285e-7 
1.9854147796189816e-6 
7.572099993774055e-6 
1.2437152470811785e-5 
2.505663282182173e-6 
-2.0196886987105134e-5 
0.00029661233007220744 
0.00020274183421470886 
-4.133259298993177e-6 
6.630774812151226e-6 
2.5475516056701878e-6 
9.557071269007858e-6 
-9.72604978106512e-5 
-0.00012073451255646113 
0.00017518187469478985 
-5.370857982680429e-5 
-2.612709249516226e-6 
2.650547963356096e-6 
5.454577129719488e-6 
-5.768115709560308e-6 
8.049545274098353e-5 
3.153320200687605e-5 
-0.0006794344268373163 
-0.0016009074010469076 
0.044833263791502424 
0.009291574848324435 
-2.1532244459306364e-5 
2.026104265773595e-6 
1.7668296136860738e-5 
0.00017352169871624192 
-0.00018848266290146478 
6.53777172994299e-5 
-0.00047101983546410175 
-0.0005750375934880838 
0.0008319985707682947 
4.067025395968448e-6 
-2.6553904349443484e-6 
5.965151288260078e-7 
0.01179048255250609 
0.004127429518322465 
2.72921624585917e-5 
4.2892045306680556e-5 
-0.00023310693270935275 
-0.0003513991454617253 
7.256646571023941e-5 
6.924152349286155e-5 
-3.253171488023157e-6 
1.2420730038725034e-6 
-0.00018750034825088037 
0.00020327151970139627 
4.395343723078886e-5 
-0.001240556497116643 
0.00014879653233355148 
0.0019502682855909361 
2.8389574464631463e-7 
1.3244220733261643e-6 
9.501262177619167e-7 
-8.920509805662918e-6 
8.893795726117108e-6 
6.656410534555877e-6 
9.332429996465913e-5 
4.420072004600415e-5 
-0.00011278534731140892 
7.828954456202194e-5 
7.225207971827198e-5 
0.00011916060857128353 
-2.655073534173481e-6 
2.797212661103943e-6 
-9.522006336316558e-7 
6.904854257605169e-6 
-3.085188308405376e-6 
1.3886962729287753e-5 
-6.420461880002611e-6 
1.9553204481497078e-6 
-0.0001800038380216448 
0.00038008454154364564 
-0.0002090579163461941 
0.0005461105030132947 
3.889149434782664e-7 
2.3761776380128823e-6 
-3.260608725290129e-5 
-6.56031618758782e-5 
5.0622106555497706e-5 
4.23759316307644e-5 
0.00041740244169624944 
-0.00034067097969463407 
0.00021194389627670327 
0.0002569388306000772 
1.237224017385109e-6 
-2.727378814768238e-7 