# vtk DataFile Version 3.0 
Unstructured Grid 
ASCII 
DATASET UNSTRUCTURED_GRID
POINTS 2173 float 
-0.5 -0.5 0  
0.5 -0.5 0  
0.5 0.5 0  
-0.5 0.5 0  
-0.475 -0.5 0  
-0.45 -0.5 0  
-0.425 -0.5 0  
-0.4 -0.5 0  
-0.375 -0.5 0  
-0.35 -0.5 0  
-0.325 -0.5 0  
-0.3 -0.5 0  
-0.275 -0.5 0  
-0.25 -0.5 0  
-0.225 -0.5 0  
-0.2 -0.5 0  
-0.175 -0.5 0  
-0.15 -0.5 0  
-0.125 -0.5 0  
-0.1 -0.5 0  
-0.075 -0.5 0  
-0.05 -0.5 0  
-0.025 -0.5 0  
-1.3761214e-12 -0.5 0  
0.025 -0.5 0  
0.05 -0.5 0  
0.075 -0.5 0  
0.1 -0.5 0  
0.125 -0.5 0  
0.15 -0.5 0  
0.175 -0.5 0  
0.2 -0.5 0  
0.225 -0.5 0  
0.25 -0.5 0  
0.275 -0.5 0  
0.3 -0.5 0  
0.325 -0.5 0  
0.35 -0.5 0  
0.375 -0.5 0  
0.4 -0.5 0  
0.425 -0.5 0  
0.45 -0.5 0  
0.475 -0.5 0  
0.5 -0.475 0  
0.5 -0.45 0  
0.5 -0.425 0  
0.5 -0.4 0  
0.5 -0.375 0  
0.5 -0.35 0  
0.5 -0.325 0  
0.5 -0.3 0  
0.5 -0.275 0  
0.5 -0.25 0  
0.5 -0.225 0  
0.5 -0.2 0  
0.5 -0.175 0  
0.5 -0.15 0  
0.5 -0.125 0  
0.5 -0.1 0  
0.5 -0.075 0  
0.5 -0.05 0  
0.5 -0.025 0  
0.5 -1.3761214e-12 0  
0.5 0.025 0  
0.5 0.05 0  
0.5 0.075 0  
0.5 0.1 0  
0.5 0.125 0  
0.5 0.15 0  
0.5 0.175 0  
0.5 0.2 0  
0.5 0.225 0  
0.5 0.25 0  
0.5 0.275 0  
0.5 0.3 0  
0.5 0.325 0  
0.5 0.35 0  
0.5 0.375 0  
0.5 0.4 0  
0.5 0.425 0  
0.5 0.45 0  
0.5 0.475 0  
0.475 0.5 0  
0.45 0.5 0  
0.425 0.5 0  
0.4 0.5 0  
0.375 0.5 0  
0.35 0.5 0  
0.325 0.5 0  
0.3 0.5 0  
0.275 0.5 0  
0.25 0.5 0  
0.225 0.5 0  
0.2 0.5 0  
0.175 0.5 0  
0.15 0.5 0  
0.125 0.5 0  
0.1 0.5 0  
0.075 0.5 0  
0.05 0.5 0  
0.025 0.5 0  
1.3761214e-12 0.5 0  
-0.025 0.5 0  
-0.05 0.5 0  
-0.075 0.5 0  
-0.1 0.5 0  
-0.125 0.5 0  
-0.15 0.5 0  
-0.175 0.5 0  
-0.2 0.5 0  
-0.225 0.5 0  
-0.25 0.5 0  
-0.275 0.5 0  
-0.3 0.5 0  
-0.325 0.5 0  
-0.35 0.5 0  
-0.375 0.5 0  
-0.4 0.5 0  
-0.425 0.5 0  
-0.45 0.5 0  
-0.475 0.5 0  
-0.5 0.475 0  
-0.5 0.45 0  
-0.5 0.425 0  
-0.5 0.4 0  
-0.5 0.375 0  
-0.5 0.35 0  
-0.5 0.325 0  
-0.5 0.3 0  
-0.5 0.275 0  
-0.5 0.25 0  
-0.5 0.225 0  
-0.5 0.2 0  
-0.5 0.175 0  
-0.5 0.15 0  
-0.5 0.125 0  
-0.5 0.1 0  
-0.5 0.075 0  
-0.5 0.05 0  
-0.5 0.025 0  
-0.5 1.3761214e-12 0  
-0.5 -0.025 0  
-0.5 -0.05 0  
-0.5 -0.075 0  
-0.5 -0.1 0  
-0.5 -0.125 0  
-0.5 -0.15 0  
-0.5 -0.175 0  
-0.5 -0.2 0  
-0.5 -0.225 0  
-0.5 -0.25 0  
-0.5 -0.275 0  
-0.5 -0.3 0  
-0.5 -0.325 0  
-0.5 -0.35 0  
-0.5 -0.375 0  
-0.5 -0.4 0  
-0.5 -0.425 0  
-0.5 -0.45 0  
-0.5 -0.475 0  
-0.002115384 -0.00023065208 0  
-0.20714286 -0.20714286 0  
0.20714286 -0.20714286 0  
0.20714286 0.20714286 0  
-0.20714286 0.20714286 0  
-0.28155318 -0.0017231192 0  
0.0017231192 -0.28155318 0  
0.28155318 0.0017231192 0  
-0.0017231192 0.28155318 0  
0.3319978 -0.33098683 0  
0.33098683 0.3319978 0  
-0.3319978 0.33098683 0  
-0.33098683 -0.3319978 0  
-0.14015679 -0.06698606 0  
0.06698606 -0.14015679 0  
0.14015679 0.06698606 0  
-0.06698606 0.14015679 0  
-0.1387125 -0.34573975 0  
0.34573975 -0.1387125 0  
0.1387125 0.34573975 0  
-0.34573975 0.1387125 0  
0.14046866 -0.34602854 0  
0.34602854 0.14046866 0  
-0.14046866 0.34602854 0  
-0.34602854 -0.14046866 0  
-0.05869875 -0.16617337 0  
0.18217777 -0.061504476 0  
0.062312964 0.18362015 0  
-0.18362015 0.062312964 0  
-0.034321424 -0.38563195 0  
0.38563195 -0.034321424 0  
0.034321424 0.38563195 0  
-0.38563195 0.034321424 0  
0.39586002 -0.2428538 0  
0.2428538 0.39586002 0  
-0.39586002 0.2428538 0  
-0.2428538 -0.39586002 0  
0.23688246 -0.38952246 0  
0.38952246 0.23688246 0  
-0.23688246 0.38952246 0  
-0.38952246 -0.23688246 0  
-0.24287231 -0.09948847 0  
0.09948847 -0.24287231 0  
0.24287231 0.09948847 0  
-0.09948847 0.24287231 0  
-0.11560815 -0.24300627 0  
0.24300627 -0.11560815 0  
0.11560815 0.24300627 0  
-0.24300627 0.11560815 0  
-0.40192315 -0.4008276 0  
0.4008276 -0.40192315 0  
0.40192315 0.4008276 0  
-0.4008276 0.40192315 0  
0.06409326 -0.40289903 0  
0.40289903 0.06409326 0  
-0.06409326 0.40289903 0  
-0.40289903 -0.06409326 0  
0.2962961 -0.23982804 0  
0.23982804 0.2962961 0  
-0.2962961 0.23982804 0  
-0.23982804 -0.2962961 0  
-0.28087237 -0.21196799 0  
0.21196799 -0.28087237 0  
0.28087237 0.21196799 0  
-0.21196799 0.28087237 0  
-0.0901279 0.007867504 0  
-0.05002927 -0.07494272 0  
0.0873353 -0.009871756 0  
0.0071518295 0.09216282 0  
-0.14120433 -0.1484696 0  
-0.14581114 0.13960092 0  
0.1458264 -0.14505939 0  
0.13960092 0.14581114 0  
0.41838804 -0.3182741 0  
0.3182741 0.41838804 0  
-0.41838804 0.3182741 0  
-0.3182741 -0.41838804 0  
0.32118136 -0.41712493 0  
0.41712493 0.32118136 0  
-0.32118136 0.41712493 0  
-0.41712493 -0.32118136 0  
-0.19707234 -0.014843048 0  
0.018050108 -0.20183705 0  
0.19707234 0.014843048 0  
-0.014843048 0.19707234 0  
-0.10938372 -0.41847488 0  
0.41847488 -0.10938372 0  
0.10938372 0.41847488 0  
-0.41847488 0.10938372 0  
0.15773043 -0.4267032 0  
0.4267032 0.15773043 0  
-0.15773043 0.4267032 0  
-0.4267032 -0.15773043 0  
-0.3204562 -0.07174808 0  
0.07174808 -0.3204562 0  
0.3204562 0.07174808 0  
-0.07174808 0.3204562 0  
0.02801032 -0.07269879 0  
-0.31817523 0.069836795 0  
-0.069836795 -0.31817523 0  
0.31817523 -0.069836795 0  
0.069836795 0.31817523 0  
0.43106207 -0.17757268 0  
0.17757268 0.43106207 0  
-0.43106207 0.17757268 0  
-0.17757268 -0.43106207 0  
0.0703783 0.071201205 0  
-0.051593844 0.064346604 0  
0.099701226 -0.08333426 0  
0.2863281 -0.17248559 0  
0.17248559 0.2863281 0  
-0.2863281 0.17248559 0  
-0.17248559 -0.2863281 0  
-0.2341888 0.04979648 0  
-0.049194112 -0.231281 0  
0.23358595 -0.04946041 0  
0.04979648 0.2341888 0  
-0.009939441 -0.13691185 0  
-0.26560438 -0.17864102 0  
0.17864102 -0.26560438 0  
0.26560438 0.17864102 0  
-0.17864102 0.26560438 0  
0.013302229 -0.43510666 0  
0.43510666 0.013302229 0  
-0.013302229 0.43510666 0  
-0.43510666 -0.013302229 0  
0.09432827 0.114700764 0  
-0.11539384 0.093188405 0  
-0.3413634 -0.005100272 0  
0.005100272 -0.3413634 0  
0.3413634 0.005100272 0  
-0.005100272 0.3413634 0  
-0.19817708 -0.3508856 0  
0.3508856 -0.19817708 0  
0.19817708 0.3508856 0  
-0.3508856 0.19817708 0  
-0.34100306 -0.27216324 0  
0.27216324 -0.34100306 0  
0.34100306 0.27216324 0  
-0.27216324 0.34100306 0  
-0.20269383 -0.14403741 0  
0.14393912 -0.2028372 0  
0.2026342 0.14393856 0  
-0.14393856 0.2026342 0  
-0.1030633 -0.10524017 0  
-0.4394695 -0.104853734 0  
0.104853734 -0.4394695 0  
0.4394695 0.104853734 0  
-0.104853734 0.4394695 0  
-0.44156647 -0.44156647 0  
0.44156647 -0.44156647 0  
0.44156647 0.44156647 0  
-0.44156647 0.44156647 0  
-0.2683254 -0.44465622 0  
0.44465622 -0.2683254 0  
0.2683254 0.44465622 0  
-0.44465622 0.2683254 0  
0.2654342 -0.4435478 0  
0.4435478 0.2654342 0  
-0.2654342 0.4435478 0  
-0.4435478 -0.2654342 0  
-0.27373606 -0.34534052 0  
0.34534052 -0.27373606 0  
0.27373606 0.34534052 0  
-0.34534052 0.27373606 0  
-0.05307205 -0.4481981 0  
0.4481981 -0.05307205 0  
0.05307205 0.4481981 0  
-0.4481981 0.05307205 0  
-0.35614902 -0.19390328 0  
0.19390328 -0.35614902 0  
0.35614902 0.19390328 0  
-0.19390328 0.35614902 0  
-0.14022674 -0.012452113 0  
0.14171903 0.011271359 0  
-0.01125192 0.14089845 0  
-0.19556868 -0.06932378 0  
0.070511825 -0.19668652 0  
0.19556868 0.06932378 0  
-0.06932378 0.19556868 0  
-0.24951252 -0.039742906 0  
0.04037078 -0.2503529 0  
0.24951252 0.039742906 0  
-0.039742906 0.24951252 0  
0.44100407 -0.36164257 0  
0.36164257 0.44100407 0  
-0.44100407 0.36164257 0  
-0.36164257 -0.44100407 0  
-0.4451273 -0.36589316 0  
0.36589316 -0.4451273 0  
0.4451273 0.36589316 0  
-0.36589316 0.4451273 0  
0.1121834 -0.30242515 0  
0.30242515 0.1121834 0  
-0.1121834 0.30242515 0  
-0.30242515 -0.1121834 0  
-0.115146436 -0.19087775 0  
0.19190264 -0.11309679 0  
0.11520548 0.19263776 0  
-0.19263776 0.11520548 0  
-0.08287991 -0.37025127 0  
0.37025127 -0.08287991 0  
0.08287991 0.37025127 0  
-0.37025127 0.08287991 0  
0.23791528 -0.24381089 0  
0.24381089 0.23791528 0  
-0.23791528 0.24381089 0  
-0.24381089 -0.23791528 0  
-0.44626984 -0.21174923 0  
0.21174923 -0.44626984 0  
0.44626984 0.21174923 0  
-0.21174923 0.44626984 0  
0.35174853 -0.37705234 0  
0.37705234 0.35174853 0  
-0.35174853 0.37705234 0  
-0.37705234 -0.35174853 0  
-0.048605647 -0.023262763 0  
-0.1551113 -0.21381997 0  
0.21381997 -0.1551113 0  
0.1551113 0.21381997 0  
-0.21381997 0.1551113 0  
-0.29403278 -0.30027482 0  
0.30027482 -0.29403278 0  
0.29403278 0.30027482 0  
-0.30027482 0.29403278 0  
0.12173745 -0.390654 0  
0.390654 0.12173745 0  
-0.12173745 0.390654 0  
-0.390654 -0.12173745 0  
-0.12236246 -0.2979882 0  
0.2979882 -0.12236246 0  
0.12236246 0.2979882 0  
-0.2979882 0.12236246 0  
-0.0945969 -0.046371013 0  
0.035276897 -0.027358124 0  
-0.0076714605 0.051946 0  
-0.30809116 -0.17165439 0  
0.17165439 -0.30809116 0  
0.30809116 0.17165439 0  
-0.17165439 0.30809116 0  
-0.16592422 -0.10879113 0  
0.10700909 -0.1687818 0  
0.16864619 0.10664837 0  
-0.10664837 0.16864619 0  
-0.16784625 -0.38069874 0  
0.38069874 -0.16784625 0  
0.16784625 0.38069874 0  
-0.38069874 0.16784625 0  
-0.4563872 -0.05993889 0  
0.05993889 -0.4563872 0  
0.4563872 0.05993889 0  
-0.05993889 0.4563872 0  
0.31103167 -0.37412483 0  
0.37412483 0.31103167 0  
-0.31103167 0.37412483 0  
-0.37412483 -0.31103167 0  
-0.3909646 -0.012754724 0  
0.012754724 -0.3909646 0  
0.3909646 0.012754724 0  
-0.012754724 0.3909646 0  
0.44915667 -0.21679194 0  
0.21679194 0.44915667 0  
-0.44915667 0.21679194 0  
-0.21679194 -0.44915667 0  
0.045831423 0.12033131 0  
-0.12662303 0.045442794 0  
-0.3107799 -0.37355793 0  
0.37355793 -0.3107799 0  
0.3107799 0.37355793 0  
-0.37355793 0.3107799 0  
0.04152367 0.021693805 0  
-0.08040017 -0.2675595 0  
0.26794365 -0.08044455 0  
0.080500565 0.2680441 0  
-0.2680441 0.080500565 0  
-0.13753757 -0.45578164 0  
0.45578164 -0.13753757 0  
0.13753757 0.45578164 0  
-0.45578164 0.13753757 0  
-0.05507968 -0.12135967 0  
0.14172421 -0.09428923 0  
0.2571752 -0.19664502 0  
[...]
POINT_DATA 2173 
SCALARS T float 
LOOKUP_TABLE default 
1.1043833842518704e-21 
1.5996422730151738e-29 
2.268249570894819e-22 
-4.0377040562620605e-19 
-3.1616069653817786e-21 
-8.016177644380665e-21 
2.6412164467906625e-20 
-1.2246402754398272e-20 
-2.5122192469003918e-21 
-2.2390682908856928e-20 
3.4120847037704924e-20 
-7.369379619239435e-20 
8.395513569546885e-20 
-1.9502873836842963e-20 
-6.368196565241488e-21 
-3.75213040177216e-21 
3.958485307403505e-21 
-6.5411743212339614e-21 
3.2018205148839035e-21 
-1.1908006487813247e-22 
8.334195490855156e-24 
-2.88143827035365e-23 
-2.231559403883469e-24 
-2.5377326410172947e-23 
1.1557960725283277e-23 
-6.834483721850911e-24 
-2.2023443166564736e-24 
-9.460380273564054e-26 
-1.4402255223189285e-26 
1.0705400791217583e-26 
5.953379459066952e-27 
-2.3656824772872953e-27 
-1.963395627139399e-27 
-3.1145504740727577e-27 
-1.9478392947384957e-27 
-5.569761683484158e-28 
-8.117710710181411e-29 
-4.6862434046755563e-29 
-3.0074239364539175e-30 
1.6007501528355003e-29 
-3.02377943418602e-29 
-2.713841642783473e-29 
5.667009376038395e-29 
-4.757279197739077e-29 
-2.034711822934524e-28 
4.383429825934738e-28 
-1.7715958248744559e-28 
-3.7642214833463086e-29 
-1.113396544757333e-27 
1.6424287831513413e-27 
-4.828117068761553e-28 
-1.2259472941822476e-26 
4.8720517327673224e-26 
-1.0077889332464511e-25 
1.9114204619414903e-25 
-4.314917689158084e-25 
1.2429501381229608e-24 
-2.291335610296337e-24 
2.7170252210998805e-24 
-2.745727414733528e-24 
2.488182103826589e-24 
-3.1457445483304955e-24 
7.451447437318606e-24 
-1.365062101380913e-23 
2.6028222130216357e-23 
-3.068671060169809e-23 
4.598953635274562e-25 
9.850379360278168e-23 
-2.031669645168012e-22 
4.2286936345384107e-22 
-7.650361642873739e-22 
7.968901067942454e-22 
5.902309293958047e-22 
-2.1421719598775184e-21 
1.6274925873136367e-21 
-1.5311030393339864e-21 
3.866428834939889e-21 
1.345048741248469e-21 
-1.81455363963084e-22 
-2.3312623785932287e-22 
1.722696165304022e-21 
1.0404953023754023e-21 
-7.03498302607065e-22 
-3.352462306477185e-21 
7.879985145706926e-21 
-3.948180713762741e-21 
-1.288349233908723e-22 
-1.7973523515352726e-20 
3.4205514352936646e-20 
-5.16010321566691e-20 
3.177431897163562e-20 
9.581561192131169e-20 
-2.939909904798488e-19 
8.845653723038832e-19 
-1.9476523289476023e-18 
5.719220866776972e-18 
-1.0659332531230192e-17 
1.2261218273685413e-17 
-1.1911373821408544e-17 
4.9070569034973336e-18 
5.271532312237126e-18 
-3.911541661191925e-19 
-7.155136729863279e-18 
2.188542286373407e-17 
-5.02092087705684e-17 
7.532473354028005e-17 
8.120790167281729e-18 
6.032509617786827e-17 
-7.04319915063076e-17 
1.2197045318171795e-16 
-1.4140181624400462e-16 
7.004108241579111e-17 
1.4012122633967586e-16 
2.6249619101171463e-16 
3.761972915315133e-17 
1.113360194580509e-16 
1.172393770162049e-17 
-1.0163257455894018e-17 
1.464119435363044e-17 
9.654659147436892e-18 
-4.803908448765365e-18 
5.584111641806776e-18 
7.215310778929279e-18 
-1.3739477805887356e-17 
5.442559363694127e-18 
7.044846168233064e-18 
-2.2954525076786855e-17 
6.199090846733386e-17 
-8.154753656455671e-17 
-3.44988711853281e-17 
3.397466269531951e-16 
-6.810265279737495e-16 
4.272594708008816e-16 
1.598226822736988e-16 
-8.361522079176406e-16 
1.6753217356196353e-15 
-2.243482675682332e-15 
1.730791439833351e-15 
-4.88714786435242e-16 
-1.1280983884157547e-15 
1.9793381917528314e-15 
-1.9298043354024732e-15 
1.7675415090033623e-15 
-3.471447407272404e-16 
-3.1913869702002787e-16 
1.0968264162979197e-16 
-2.259225058216027e-16 
3.9117014958046173e-17 
-6.720143065946906e-17 
-5.2649802700011185e-17 
-1.1473986782854446e-16 
-8.018011580803924e-17 
-4.780185201982951e-17 
-1.4081655982371604e-17 
-5.6734196057825996e-18 
-7.187146466415458e-20 
1.970562836727397e-20 
2.7956115972171784e-20 
4.014303726140636e-21 
4.853009300558515e-21 
1.3496222620542911e-7 
0.14854504489282025 
-7.075838817683001e-13 
2.15678318870301e-7 
0.0006232740641427152 
0.019668059571541687 
-5.388262934026074e-8 
4.9455157415360336e-11 
2.2903320357997445e-5 
-6.8617822259797964e-15 
-2.6214182292938305e-8 
-0.00013141411182398925 
-8.221270783384544e-6 
0.10868389834002881 
4.205208365338879e-9 
-2.9682869476755637e-8 
-0.0006006082482113911 
-1.0128802152533624e-6 
-1.2684596379572502e-12 
-6.91619697992172e-8 
-0.000428944902763366 
6.602520447224969e-12 
5.95629679889923e-10 
-0.00016452285098698285 
0.021306314475215016 
0.000971504903615509 
-2.6312187286514165e-10 
-1.4970787059179194e-6 
0.00216554282960667 
-1.277948106757352e-8 
3.821911321079395e-11 
2.6695167987499702e-5 
-0.0017162183921530239 
3.637143536904742e-14 
5.508640773777797e-7 
-8.84113679143223e-5 
-3.953124255626654e-7 
-7.841761719649772e-15 
1.9905726452851107e-9 
4.978338797835913e-5 
-0.00017603577132091264 
0.7673117730800729 
5.627846520732264e-10 
-7.347950029500035e-10 
0.00011258254553748988 
0.001953193469638152 
-2.234565436653998e-11 
-1.0741707718207018e-6 
-0.0008895647245155208 
2.947223590012518e-7 
-4.535335753825624e-16 
1.1329629482838465e-8 
0.00010581575916477155 
-7.447129053682989e-11 
1.215899500822067e-10 
7.921084755649474e-6 
0.004248354422659339 
-2.031410332707374e-13 
1.0203830054655822e-7 
-0.00037976203807638413 
0.00023544165301108422 
0.04983975075028769 
1.9508923847932844e-14 
-5.480198315140629e-10 
6.07003761222128e-5 
0.0009252495121478723 
0.0003438013562752401 
5.585579750384284e-9 
-3.716358655727887e-5 
0.18609796679731003 
-0.0031400781084105346 
1.626141599172472e-11 
-1.5424166298613503e-7 
-2.96438693214453e-15 
2.2137214865634258e-8 
0.0001546786413149368 
-7.086603946950893e-7 
-2.5165559759653225e-16 
-1.0045097758354615e-9 
0.00015603716547742447 
-1.9177212743926167e-5 
0.06752833506204005 
1.8209163053578947e-7 
-1.4887159281285567e-9 
-6.863952673704145e-5 
-1.582902685227797e-8 
2.79637353578071e-12 
3.997563232468294e-6 
0.0007601042248388744 
1.3473917684697114e-13 
4.4569631424695944e-11 
2.4931318659830953e-5 
2.8746452476949615e-5 
0.03803530757158961 
1.0742019571233023e-10 
-1.8242237993144462e-10 
-0.00011646549090476824 
-1.7044993031200183e-8 
0.00021253703454217308 
-8.995500532786141e-7 
3.4720831931013166e-12 
4.6652348304147376e-7 
3.562392537057072e-13 
1.5472265515629295e-6 
-0.0008567589913266034 
-9.37020558722468e-8 
-1.210086344593264e-6 
1.36201815099663e-5 
2.7489143661318004e-10 
2.7001630371772476e-14 
-6.272442292985166e-8 
-0.0007138234459638649 
0.0009143570501755872 
0.007372505961647546 
2.15117050389903e-5 
-1.0721236305077556e-10 
-3.800415193993559e-6 
1.5934532700276048e-5 
0.26174731812821184 
-2.059565577369215e-13 
2.9265861964572276e-8 
0.0003127769389118726 
-2.10106367292721e-10 
-7.64911516558528e-12 
3.3563277757026293e-7 
0.0009518924388337336 
4.278752519586574e-7 
-0.00023333551545985851 
-0.008113418862539482 
-9.285479261983984e-9 
2.6549542216646637e-11 
-8.278854439369096e-6 
5.836725396400462e-7 
-7.519765290641632e-14 
7.70387388765573e-8 
0.0017886130753897648 
3.85776995506232e-6 
-1.7541275578673276e-14 
1.0895676305515098e-8 
0.00027194992391456915 
0.7652131594174447 
1.9014537993637785e-12 
2.9424358151445912e-8 
-0.001389827119855842 
0.03344996897029049 
-8.191664172137359e-6 
-7.231992411410973e-13 
4.831551001955062e-11 
4.417591210359253e-5 
-3.1598933499135954e-8 
-3.230133966370297e-16 
-4.1923405301297897e-10 
3.7914400338079246e-5 
-1.232476497267957e-7 
-1.5881280744878563e-14 
-1.3642882199833833e-7 
-0.0001506836287598084 
-1.7864040623212694e-15 
-8.798623039868681e-10 
0.00014548204967661094 
-6.135655205686236e-5 
-2.0275478652097492e-5 
-4.807823568415504e-14 
9.173487335174417e-8 
-0.00013265143472197702 
-8.369756609616145e-12 
2.6740617623227525e-12 
6.612423132882289e-6 
5.835626777463269e-5 
0.002841838695769497 
5.469771144187049e-15 
1.4152664324207404e-9 
0.0003306449566463047 
0.018092873635763475 
1.2654264325929813e-10 
2.9826379687155135e-5 
0.4584746563903258 
6.395886873266695e-10 
1.9659666984270575e-9 
-9.51823607417318e-5 
0.13709018485572913 
-5.8615741260841965e-9 
-3.6926513119473113e-11 
1.2770935026597848e-5 
-1.3942831331919346e-15 
-1.007982013060759e-8 
6.751090746254088e-5 
-8.916697404539879e-8 
-1.6935896814764458e-6 
3.1199861215095057e-17 
-1.2086769588399948e-10 
6.344664642740625e-5 
5.698690731386295e-11 
4.093121028211303e-9 
0.00018163884227095448 
0.18035357929572976 
0.02181689544982145 
-2.8158888780404635e-11 
6.802891178900647e-7 
-0.0031783447475344224 
-1.2334940285222585e-7 
3.548153565882759e-13 
-6.529497287605735e-7 
0.0010096463911419564 
-1.5390086239222913e-13 
-3.748249342787865e-8 
-0.0006961256217786809 
0.028641652139723497 
-4.752412281390756e-6 
-3.1740321594857834e-15 
-4.308881607956273e-10 
1.5570230731545766e-5 
9.11661102473025e-16 
1.82461785840937e-8 
7.894376411980509e-5 
-1.462665257483373e-6 
5.7187923789384384e-5 
0.04716084667516349 
-1.1830817380929124e-12 
-2.9220327229713386e-7 
-0.005078441662379219 
6.915232035976803e-5 
-2.0807102943544094e-15 
2.998122094028201e-8 
1.905031631170859e-5 
1.04310446726746e-12 
9.585091344282646e-11 
3.0530547507889587e-6 
0.003133169545388878 
1.8090033619697183e-5 
-8.108659586987212e-12 
2.1485319979144747e-6 
0.0015308411041646318 
0.006061545835431103 
4.020637919951369e-8 
-7.285893231483193e-6 
0.0778677652104962 
5.699511029520997e-14 
9.53033498278413e-9 
0.0001795588383202844 
0.465325715720165 
-1.0780144072351365e-12 
1.6682115632785403e-8 
0.0007715987029255165 
-3.8563757561319245e-7 
-1.1148106548997106e-13 
2.7854495559405754e-7 
0.0006583801969578072 
0.0013931090552014443 
-8.630595032626105e-12 
2.2065464626767045e-11 
-8.355686933324656e-6 
-1.2028989140175667e-15 
-1.8467107610494083e-10 
0.00027960473864368704 
-2.002130095551611e-5 
-0.002855483288090143 
-1.5115683474667305e-9 
1.391377228552304e-10 
8.378694955052178e-5 
2.666165611003397e-14 
-4.10671993513568e-8 
0.00022144790101849955 
2.8872874690292107e-8 
3.7589445199707937e-6 
0.0006528073921264 
-2.788113138209576e-6 
4.844850358192178e-15 
1.2408062748687828e-7 
0.00023479845933933302 
1.4844967080736203e-7 
3.084366539542332e-5 
-5.3970921404514924e-11 
2.5751288255219578e-6 
0.0007726046242193511 
-9.672114235968404e-9 
1.383322475849533e-12 
3.7962617014959372e-6 
0.00026643031019435984 
0.0014068699186248978 
-2.0237519004714576e-11 
-2.523690159007881e-12 
2.7216488412551795e-7 
-0.00024484948143261605 
0.01017815422216641 
-1.9140051242939697e-9 
5.263012180551766e-6 
-1.6219128086717737e-6 
7.66989000252428e-16 
5.518618818891432e-8 
0.00031356671224458155 
-2.5381753553892076e-15 
-2.8350962209633698e-8 
8.263705246204128e-6 
3.302552286148956e-9 
-2.382559855228333e-17 
1.0501084459402796e-9 
-7.176508606806694e-6 
6.993318785798134e-6 
-1.2430138966892204e-7 
-0.00014264345082209254 
0.21087979615431485 
-1.4468023405457293e-10 
-1.71106564389107e-10 
4.6868562949675746e-5 
5.587565365213466e-6 
-3.397266784211514e-10 
6.169118404558834e-6 
1.1892962515081717e-5 
-7.824175373000494e-12 
7.369216255000455e-7 
0.00998732137810254 
0.00685255220814628 
-5.435388878583686e-7 
-2.588799044539512e-10 
-4.787591686542729e-6 
-9.76754558426069e-5 
1.295431054791118e-14 
4.0879624021469416e-11 
-1.6169736751127985e-5 
1.1489297814846809e-8 
9.019385348803418e-8 
1.1831634834070396e-12 
6.794915370301163e-10 
0.00010586857169077676 
0.0020053987400188485 
0.02246118258213259 
2.5518233531528525e-15 
1.3894060756905283e-7 
-0.00016081169258045212 
-2.0729000662901877e-6 
-0.0010827307140770942 
-2.0518535353236315e-7 
-8.095738274221637e-12 
5.301063085149909e-6 
-2.2520454979619876e-10 
3.806075613595919e-12 
1.0311767395218993e-5 
-0.00139884708047932 
-7.86757078261417e-10 
2.4447975402924225e-10 
6.604382531225871e-5 
-0.0004958274805982358 
0.023326322002834837 
3.2152754093203926e-12 
1.1672399050288708e-9 
0.0001844223162110533 
0.2773112015865277 
0.0016784738705052558 
-3.5640744965498522e-12 
3.5433779297594985e-8 
-3.1989278122613464e-15 
-1.511093586248922e-9 
9.245240465781262e-5 
-3.2892504055486873e-5 
-1.0232258768552217e-7 
-3.7074800947834065e-13 
-1.9727326242450292e-7 
-0.0009449912622224944 
-7.37595595312969e-11 
-2.6542683524045325e-12 
-3.0152232181472237e-6 
-0.0009927472456995245 
-0.00016599575610604046 
-2.418675830532599e-14 
-3.0568171849605643e-10 
-2.377280371169054e-5 
-4.145788866052749e-16 
-6.680973603073513e-9 
4.340980226901949e-6 
-2.1583225323825137e-8 
-2.01083902258156e-18 
-2.310384424984009e-10 
2.8607271100747446e-6 
2.62258705458838e-8 
-0.0009557279854651089 
-5.886383575180981e-7 
-1.857670199470883e-11 
1.2734654559010177e-5 
0.12692875699403516 
-4.06013605864474e-9 
6.314930057370103e-5 
-1.576614352403038e-6 
6.680257549156944e-5 
0.022694066727772903 
-2.281722815505202e-9 
-8.052440041784947e-12 
2.965867848184914e-5 
-0.0019842838495261086 
-4.2432105790120617e-10 
1.6418886499284253e-11 
2.5325509637516374e-5 
-1.1959777193095422e-9 
0.17067081429586414 
-3.0592245228629114e-13 
1.0522521355670545e-7 
0.0011387138234999776 
-2.43405166968437e-13 
-2.4005900950364606e-6 
0.0005169037949697514 
7.921664107759875e-12 
-5.778453551873236e-6 
0.8196114895736623 
2.5289313197136393e-11 
3.39450218640104e-9 
-0.0014505895442427706 
-4.1715751847517606e-11 
1.2071557034988787e-12 
-1.0216540827172551e-5 
0.0012139143345980298 
-1.2392497766922003e-11 
8.74999547978888e-7 
0.0046741770901705115 
0.004542193492800811 
-1.4755836726851721e-8 
-1.849754603527374e-5 
-1.1395413461861734e-13 
2.2712050063847763e-8 
-0.00021439420227699306 
0.00338750534618386 
-0.000473158148376418 
2.6220983335546404e-7 
2.870466777132174e-13 
-8.752232702040881e-7 
0.0023339529216568917 
-1.6896484516317797e-14 
4.812416702884745e-10 
-9.701031416172419e-5 
0.001114664484879422 
-3.8448152289892994e-11 
-1.6777694488696705e-6 
0.0031065690442358142 
-1.1077805968898841e-13 
-2.2738973747413535e-8 
0.0001037608695298834 
6.1649737445714685e-6 
6.429190521454254e-8 
-1.1981885703017563e-14 
-3.2176293530160074e-7 
0.0003955916549969021 
6.489786565302338e-6 
-3.6677273088467407e-13 
-1.4524729139175936e-7 
0.0009041989452032544 
0.0001437544466407072 
-3.08689674389643e-13 
1.0519964297590572e-7 
-0.00036949804474352275 
-1.3091582316755969e-7 
-0.002090411224964473 
-2.4381542000186183e-15 
2.9033399359604538e-11 
-2.4980166211983933e-5 
0.00011268510435946693 
-1.0765392741105126e-8 
-1.4082456482457672e-16 
-1.8782062970850196e-9 
1.0864258264955416e-5 
0.5736016827389838 
-4.4832194813138003e-13 
2.086835802328447e-9 
-0.0002158089022861632 
0.004648623292905986 
-2.1694389257275663e-10 
-2.8363794583436352e-6 
0.0004291086081175134 
1.288729002084243e-7 
-5.074385034094744e-8 
-2.2493228128611745e-13 
-1.3606818020385421e-6 
-0.0008680003934183061 
6.228614597302405e-6 
-1.511134371776227e-6 
4.069674446325267e-16 
3.1345953843620586e-8 
0.0003635058098768814 
-9.402621769143903e-13 
-9.620266658178786e-9 
-0.0002504839595890405 
0.44836285985933055 
-5.26908313012563e-10 
2.9767866543661026e-11 
2.959376213258196e-5 
-0.0004725807290194367 
0.12814631300632254 
0.03647062341107391 
0.09523476754939461 
-2.4684557851477695e-12 
3.564696267682593e-12 
1.0019733770971262e-11 
1.755166543549135e-7 
-1.9485079101835404e-8 
-2.646733022682092e-7 
-0.00016089055912218547 
0.004152874071183559 
-0.0011865444567266124 
2.8952028727124226e-5 
0.00010567997220996819 
0.0002715942014698914 
1.2944466590092267e-10 
-7.85454901977716e-12 
-2.1136208462623773e-11 
8.071894929673873e-6 
5.287002481436214e-6 
-5.397897948140932e-6 
0.004237350695402771 
-0.005248129927187204 
0.0012812404744502648 
0.24316876018042557 
0.0738624243971941 
-0.00238357404893305 
0.004434090804655561 
-6.467122743915003e-12 
-5.503973237836499e-13 
1.4747311199354333e-7 
-8.916758365182436e-8 
-0.00035682182266365405 
-0.0020113552936531793 
0.0002271606020593362 
0.0014062314165179152 
3.5795310669908965e-11 
7.463870762050267e-11 
2.931476672241655e-6 
2.4765093624264923e-6 
4.510505703734477e-7 
-1.594367432212953e-6 
4.149645968948958e-7 
0.258895072747839 
0.15984576966606598 
0.07332224901369125 
0.10474642972718563 
0.32626788691960096 
3.1557702777657234e-7 
2.525760081200842e-9 
1.5712912934961282e-7 
2.7229694043276486e-14 
1.68688665300989e-14 
-8.240852831259889e-14 
1.2346210073113175e-7 
1.9524494737022735e-7 
-5.930014801522339e-7 
-0.00019423208408512438 
0.00011573700734384609 
0.00021756390607703232 
6.948127341429546e-8 
-8.916939079516571e-9 
1.8139425928546976e-17 
-7.930001122407161e-18 
-1.1745149641870562e-9 
8.71448916578344e-11 
-1.7835681772735287e-5 
5.451160542904768e-6 
1.7613023690886097e-8 
-9.362551252045549e-9 
4.1403085758511167e-16 
-1.606470744028179e-16 
7.072503788038594e-9 
-3.16892805918293e-9 
3.518358084596788e-6 
2.247399681807343e-6 
0.002374488202078238 
-0.000691997835077603 
0.011695567798946248 
-1.5579034192267848e-7 
4.315555512069504e-8 
1.4370619732011309e-8 
-7.595754781861175e-12 
-1.770475506699027e-11 
1.8589037726881442e-11 
-2.2693655111029163e-5 
7.475039490558293e-6 
3.7936730889017284e-6 
-5.544362370758695e-16 
6.405097501438815e-15 
-9.256175821382042e-16 
1.8523291669807082e-8 
6.027259313653104e-8 
-1.9165488525028366e-8 
2.6217775203213328e-5 
6.668302902520872e-5 
-5.8609644551869235e-5 
4.399813469095103e-8 
3.7323368827457e-8 
-3.07369146005959e-8 
-1.1331262467905488e-17 
9.167352506494643e-17 
4.1490950230916066e-16 
-7.852716933483762e-10 
-3.602186495461261e-10 
7.40561007672115e-10 
-0.00010804655371018361 
5.94760294256106e-5 
-7.98174485483026e-5 
1.3827881691700549e-5 
1.3152983461876595e-5 
3.6304225667674235e-5 
-2.01073909194342e-8 
8.528864255821545e-15 
1.3672244245215739e-8 
0.00011282285315741146 
1.0287473811596923e-15 
-1.7871443974455166e-10 
-2.464892770514731e-5 
5.69946324801959e-5 
-2.389928816846343e-15 
9.467792496750829e-16 
1.111244504481383e-9 
-3.3112805187451656e-10 
-6.2677596756017e-5 
6.044922331910251e-5 
-4.665284229407852e-5 
3.608468512924435e-5 
0.0011333745548572306 
0.011782581188492689 
0.0013490234319967016 
3.1355922292979076e-6 
6.579522541235639e-7 
-1.1107059491746647e-17 
-3.569486020483612e-17 
-8.627734247887314e-10 
2.8979177063511167e-9 
-5.619682999416742e-5 
9.158337524918096e-6 
-4.13784130295348e-8 
6.085637708351514e-8 
-1.219180752763836e-15 
8.290631741261128e-16 
-1.7908732747429402e-8 
1.1280229054159334e-8 
-1.6619236484141973e-5 
-1.3421840665429609e-5 
-0.00014809530117387474 
0.005075914698142866 
3.03509518473047e-7 
-3.914680472408772e-8 
1.4613564277111846e-11 
2.2247070575683577e-12 
-1.0025841920607076e-5 
2.690694890654701e-6 
-0.00010873090104866089 
4.550799132138123e-5 
0.00026905938361752635 
-6.084760457786934e-15 
5.6336836715761936e-15 
1.3063886854305853e-14 
1.3795550467598328e-9 
1.9193585637367004e-9 
-6.4865399762508234e-9 
0.00015658468000073953 
-2.0264937346620164e-5 
-0.00025097135000950977 
-5.485257992105247e-6 
3.457052097196104e-6 
-6.808493685851796e-8 
-5.784136231450938e-7 
1.9526243807683164e-13 
-5.497056824318805e-14 
1.3709557744407428e-6 
-5.376909178048567e-7 
-0.00072819105287475 
0.00012170598017596465 
-1.6078769026129215e-13 
1.1213727082872017e-12 
-1.8014738176755566e-13 
1.4452698905074989e-10 
-6.703890539408041e-11 
-7.037080252765072e-11 
0.00012506709699784858 
-4.247928742968219e-5 
-8.588775689685446e-5 
-0.0005039339675597077 
-0.0005663069869281972 
0.00044356067289005256 
4.212768975620839e-16 
-1.8674545245240254e-15 
3.934556987182038e-15 
-1.2237768621248332e-9 
-3.6375249914429264e-8 
3.3947335577478764e-8 
7.526796369244045e-5 
-0.00015079503123359745 
-4.362110588902484e-5 
4.102164609665038e-6 
-1.3696768969527963e-6 
3.4223461983966e-6 
-1.5316846228998892e-5 
4.217703297034182e-5 
-1.5718861161959842e-16 
1.0268449489162866e-15 
4.097294136205179e-9 
-1.3123182313625317e-8 
7.270098516071228e-5 
-0.0002917806734644725 
0.002119988081914866 
0.019289870761248294 
0.005971609060802835 