# vtk DataFile Version 3.0 
Unstructured Grid 
ASCII 
DATASET UNSTRUCTURED_GRID
POINTS 2173 float 
-0.5 -0.5 0  
0.5 -0.5 0  
0.5 0.5 0  
-0.5 0.5 0  
-0.475 -0.5 0  
-0.45 -0.5 0  
-0.425 -0.5 0  
-0.4 -0.5 0  
-0.375 -0.5 0  
-0.35 -0.5 0  
-0.325 -0.5 0  
-0.3 -0.5 0  
-0.275 -0.5 0  
-0.25 -0.5 0  
-0.225 -0.5 0  
-0.2 -0.5 0  
-0.175 -0.5 0  
-0.15 -0.5 0  
-0.125 -0.5 0  
-0.1 -0.5 0  
-0.075 -0.5 0  
-0.05 -0.5 0  
-0.025 -0.5 0  
-1.3761214e-12 -0.5 0  
0.025 -0.5 0  
0.05 -0.5 0  
0.075 -0.5 0  
0.1 -0.5 0  
0.125 -0.5 0  
0.15 -0.5 0  
0.175 -0.5 0  
0.2 -0.5 0  
0.225 -0.5 0  
0.25 -0.5 0  
0.275 -0.5 0  
0.3 -0.5 0  
0.325 -0.5 0  
0.35 -0.5 0  
0.375 -0.5 0  
0.4 -0.5 0  
0.425 -0.5 0  
0.45 -0.5 0  
0.475 -0.5 0  
0.5 -0.475 0  
0.5 -0.45 0  
0.5 -0.425 0  
0.5 -0.4 0  
0.5 -0.375 0  
0.5 -0.35 0  
0.5 -0.325 0  
0.5 -0.3 0  
0.5 -0.275 0  
0.5 -0.25 0  
0.5 -0.225 0  
0.5 -0.2 0  
0.5 -0.175 0  
0.5 -0.15 0  
0.5 -0.125 0  
0.5 -0.1 0  
0.5 -0.075 0  
0.5 -0.05 0  
0.5 -0.025 0  
0.5 -1.3761214e-12 0  
0.5 0.025 0  
0.5 0.05 0  
0.5 0.075 0  
0.5 0.1 0  
0.5 0.125 0  
0.5 0.15 0  
0.5 0.175 0  
0.5 0.2 0  
0.5 0.225 0  
0.5 0.25 0  
0.5 0.275 0  
0.5 0.3 0  
0.5 0.325 0  
0.5 0.35 0  
0.5 0.375 0  
0.5 0.4 0  
0.5 0.425 0  
0.5 0.45 0  
0.5 0.475 0  
0.475 0.5 0  
0.45 0.5 0  
0.425 0.5 0  
0.4 0.5 0  
0.375 0.5 0  
0.35 0.5 0  
0.325 0.5 0  
0.3 0.5 0  
0.275 0.5 0  
0.25 0.5 0  
0.225 0.5 0  
0.2 0.5 0  
0.175 0.5 0  
0.15 0.5 0  
0.125 0.5 0  
0.1 0.5 0  
0.075 0.5 0  
0.05 0.5 0  
0.025 0.5 0  
1.3761214e-12 0.5 0  
-0.025 0.5 0  
-0.05 0.5 0  
-0.075 0.5 0  
-0.1 0.5 0  
-0.125 0.5 0  
-0.15 0.5 0  
-0.175 0.5 0  
-0.2 0.5 0  
-0.225 0.5 0  
-0.25 0.5 0  
-0.275 0.5 0  
-0.3 0.5 0  
-0.325 0.5 0  
-0.35 0.5 0  
-0.375 0.5 0  
-0.4 0.5 0  
-0.425 0.5 0  
-0.45 0.5 0  
-0.475 0.5 0  
-0.5 0.475 0  
-0.5 0.45 0  
-0.5 0.425 0  
-0.5 0.4 0  
-0.5 0.375 0  
-0.5 0.35 0  
-0.5 0.325 0  
-0.5 0.3 0  
-0.5 0.275 0  
-0.5 0.25 0  
-0.5 0.225 0  
-0.5 0.2 0  
-0.5 0.175 0  
-0.5 0.15 0  
-0.5 0.125 0  
-0.5 0.1 0  
-0.5 0.075 0  
-0.5 0.05 0  
-0.5 0.025 0  
-0.5 1.3761214e-12 0  
-0.5 -0.025 0  
-0.5 -0.05 0  
-0.5 -0.075 0  
-0.5 -0.1 0  
-0.5 -0.125 0  
-0.5 -0.15 0  
-0.5 -0.175 0  
-0.5 -0.2 0  
-0.5 -0.225 0  
-0.5 -0.25 0  
-0.5 -0.275 0  
-0.5 -0.3 0  
-0.5 -0.325 0  
-0.5 -0.35 0  
-0.5 -0.375 0  
-0.5 -0.4 0  
-0.5 -0.425 0  
-0.5 -0.45 0  
-0.5 -0.475 0  
-0.002115384 -0.00023065208 0  
-0.20714286 -0.20714286 0  
0.20714286 -0.20714286 0  
0.20714286 0.20714286 0  
-0.20714286 0.20714286 0  
-0.28155318 -0.0017231192 0  
0.0017231192 -0.28155318 0  
0.28155318 0.0017231192 0  
-0.0017231192 0.28155318 0  
0.3319978 -0.33098683 0  
0.33098683 0.3319978 0  
-0.3319978 0.33098683 0  
-0.33098683 -0.3319978 0  
-0.14015679 -0.06698606 0  
0.06698606 -0.14015679 0  
0.14015679 0.06698606 0  
-0.06698606 0.14015679 0  
-0.1387125 -0.34573975 0  
0.34573975 -0.1387125 0  
0.1387125 0.34573975 0  
-0.34573975 0.1387125 0  
0.14046866 -0.34602854 0  
0.34602854 0.14046866 0  
-0.14046866 0.34602854 0  
-0.34602854 -0.14046866 0  
-0.05869875 -0.16617337 0  
0.18217777 -0.061504476 0  
0.062312964 0.18362015 0  
-0.18362015 0.062312964 0  
-0.034321424 -0.38563195 0  
0.38563195 -0.034321424 0  
0.034321424 0.38563195 0  
-0.38563195 0.034321424 0  
0.39586002 -0.2428538 0  
0.2428538 0.39586002 0  
-0.39586002 0.2428538 0  
-0.2428538 -0.39586002 0  
0.23688246 -0.38952246 0  
0.38952246 0.23688246 0  
-0.23688246 0.38952246 0  
-0.38952246 -0.23688246 0  
-0.24287231 -0.09948847 0  
0.09948847 -0.24287231 0  
0.24287231 0.09948847 0  
-0.09948847 0.24287231 0  
-0.11560815 -0.24300627 0  
0.24300627 -0.11560815 0  
0.11560815 0.24300627 0  
-0.24300627 0.11560815 0  
-0.40192315 -0.4008276 0  
0.4008276 -0.40192315 0  
0.40192315 0.4008276 0  
-0.4008276 0.40192315 0  
0.06409326 -0.40289903 0  
0.40289903 0.06409326 0  
-0.06409326 0.40289903 0  
-0.40289903 -0.06409326 0  
0.2962961 -0.23982804 0  
0.23982804 0.2962961 0  
-0.2962961 0.23982804 0  
-0.23982804 -0.2962961 0  
-0.28087237 -0.21196799 0  
0.21196799 -0.28087237 0  
0.28087237 0.21196799 0  
-0.21196799 0.28087237 0  
-0.0901279 0.007867504 0  
-0.05002927 -0.07494272 0  
0.0873353 -0.009871756 0  
0.0071518295 0.09216282 0  
-0.14120433 -0.1484696 0  
-0.14581114 0.13960092 0  
0.1458264 -0.14505939 0  
0.13960092 0.14581114 0  
0.41838804 -0.3182741 0  
0.3182741 0.41838804 0  
-0.41838804 0.3182741 0  
-0.3182741 -0.41838804 0  
0.32118136 -0.41712493 0  
0.41712493 0.32118136 0  
-0.32118136 0.41712493 0  
-0.41712493 -0.32118136 0  
-0.19707234 -0.014843048 0  
0.018050108 -0.20183705 0  
0.19707234 0.014843048 0  
-0.014843048 0.19707234 0  
-0.10938372 -0.41847488 0  
0.41847488 -0.10938372 0  
0.10938372 0.41847488 0  
-0.41847488 0.10938372 0  
0.15773043 -0.4267032 0  
0.4267032 0.15773043 0  
-0.15773043 0.4267032 0  
-0.4267032 -0.15773043 0  
-0.3204562 -0.07174808 0  
0.07174808 -0.3204562 0  
0.3204562 0.07174808 0  
-0.07174808 0.3204562 0  
0.02801032 -0.07269879 0  
-0.31817523 0.069836795 0  
-0.069836795 -0.31817523 0  
0.31817523 -0.069836795 0  
0.069836795 0.31817523 0  
0.43106207 -0.17757268 0  
0.17757268 0.43106207 0  
-0.43106207 0.17757268 0  
-0.17757268 -0.43106207 0  
0.0703783 0.071201205 0  
-0.051593844 0.064346604 0  
0.099701226 -0.08333426 0  
0.2863281 -0.17248559 0  
0.17248559 0.2863281 0  
-0.2863281 0.17248559 0  
-0.17248559 -0.2863281 0  
-0.2341888 0.04979648 0  
-0.049194112 -0.231281 0  
0.23358595 -0.04946041 0  
0.04979648 0.2341888 0  
-0.009939441 -0.13691185 0  
-0.26560438 -0.17864102 0  
0.17864102 -0.26560438 0  
0.26560438 0.17864102 0  
-0.17864102 0.26560438 0  
0.013302229 -0.43510666 0  
0.43510666 0.013302229 0  
-0.013302229 0.43510666 0  
-0.43510666 -0.013302229 0  
0.09432827 0.114700764 0  
-0.11539384 0.093188405 0  
-0.3413634 -0.005100272 0  
0.005100272 -0.3413634 0  
0.3413634 0.005100272 0  
-0.005100272 0.3413634 0  
-0.19817708 -0.3508856 0  
0.3508856 -0.19817708 0  
0.19817708 0.3508856 0  
-0.3508856 0.19817708 0  
-0.34100306 -0.27216324 0  
0.27216324 -0.34100306 0  
0.34100306 0.27216324 0  
-0.27216324 0.34100306 0  
-0.20269383 -0.14403741 0  
0.14393912 -0.2028372 0  
0.2026342 0.14393856 0  
-0.14393856 0.2026342 0  
-0.1030633 -0.10524017 0  
-0.4394695 -0.104853734 0  
0.104853734 -0.4394695 0  
0.4394695 0.104853734 0  
-0.104853734 0.4394695 0  
-0.44156647 -0.44156647 0  
0.44156647 -0.44156647 0  
0.44156647 0.44156647 0  
-0.44156647 0.44156647 0  
-0.2683254 -0.44465622 0  
0.44465622 -0.2683254 0  
0.2683254 0.44465622 0  
-0.44465622 0.2683254 0  
0.2654342 -0.4435478 0  
0.4435478 0.2654342 0  
-0.2654342 0.4435478 0  
-0.4435478 -0.2654342 0  
-0.27373606 -0.34534052 0  
0.34534052 -0.27373606 0  
0.27373606 0.34534052 0  
-0.34534052 0.27373606 0  
-0.05307205 -0.4481981 0  
0.4481981 -0.05307205 0  
0.05307205 0.4481981 0  
-0.4481981 0.05307205 0  
-0.35614902 -0.19390328 0  
0.19390328 -0.35614902 0  
0.35614902 0.19390328 0  
-0.19390328 0.35614902 0  
-0.14022674 -0.012452113 0  
0.14171903 0.011271359 0  
-0.01125192 0.14089845 0  
-0.19556868 -0.06932378 0  
0.070511825 -0.19668652 0  
0.19556868 0.06932378 0  
-0.06932378 0.19556868 0  
-0.24951252 -0.039742906 0  
0.04037078 -0.2503529 0  
0.24951252 0.039742906 0  
-0.039742906 0.24951252 0  
0.44100407 -0.36164257 0  
0.36164257 0.44100407 0  
-0.44100407 0.36164257 0  
-0.36164257 -0.44100407 0  
-0.4451273 -0.36589316 0  
0.36589316 -0.4451273 0  
0.4451273 0.36589316 0  
-0.36589316 0.4451273 0  
0.1121834 -0.30242515 0  
0.30242515 0.1121834 0  
-0.1121834 0.30242515 0  
-0.30242515 -0.1121834 0  
-0.115146436 -0.19087775 0  
0.19190264 -0.11309679 0  
0.11520548 0.19263776 0  
-0.19263776 0.11520548 0  
-0.08287991 -0.37025127 0  
0.37025127 -0.08287991 0  
0.08287991 0.37025127 0  
-0.37025127 0.08287991 0  
0.23791528 -0.24381089 0  
0.24381089 0.23791528 0  
-0.23791528 0.24381089 0  
-0.24381089 -0.23791528 0  
-0.44626984 -0.21174923 0  
0.21174923 -0.44626984 0  
0.44626984 0.21174923 0  
-0.21174923 0.44626984 0  
0.35174853 -0.37705234 0  
0.37705234 0.35174853 0  
-0.35174853 0.37705234 0  
-0.37705234 -0.35174853 0  
-0.048605647 -0.023262763 0  
-0.1551113 -0.21381997 0  
0.21381997 -0.1551113 0  
0.1551113 0.21381997 0  
-0.21381997 0.1551113 0  
-0.29403278 -0.30027482 0  
0.30027482 -0.29403278 0  
0.29403278 0.30027482 0  
-0.30027482 0.29403278 0  
0.12173745 -0.390654 0  
0.390654 0.12173745 0  
-0.12173745 0.390654 0  
-0.390654 -0.12173745 0  
-0.12236246 -0.2979882 0  
0.2979882 -0.12236246 0  
0.12236246 0.2979882 0  
-0.2979882 0.12236246 0  
-0.0945969 -0.046371013 0  
0.035276897 -0.027358124 0  
-0.0076714605 0.051946 0  
-0.30809116 -0.17165439 0  
0.17165439 -0.30809116 0  
0.30809116 0.17165439 0  
-0.17165439 0.30809116 0  
-0.16592422 -0.10879113 0  
0.10700909 -0.1687818 0  
0.16864619 0.10664837 0  
-0.10664837 0.16864619 0  
-0.16784625 -0.38069874 0  
0.38069874 -0.16784625 0  
0.16784625 0.38069874 0  
-0.38069874 0.16784625 0  
-0.4563872 -0.05993889 0  
0.05993889 -0.4563872 0  
0.4563872 0.05993889 0  
-0.05993889 0.4563872 0  
0.31103167 -0.37412483 0  
0.37412483 0.31103167 0  
-0.31103167 0.37412483 0  
-0.37412483 -0.31103167 0  
-0.3909646 -0.012754724 0  
0.012754724 -0.3909646 0  
0.3909646 0.012754724 0  
-0.012754724 0.3909646 0  
0.44915667 -0.21679194 0  
0.21679194 0.44915667 0  
-0.44915667 0.21679194 0  
-0.21679194 -0.44915667 0  
0.045831423 0.12033131 0  
-0.12662303 0.045442794 0  
-0.3107799 -0.37355793 0  
0.37355793 -0.3107799 0  
0.3107799 0.37355793 0  
-0.37355793 0.3107799 0  
0.04152367 0.021693805 0  
-0.08040017 -0.2675595 0  
0.26794365 -0.08044455 0  
0.080500565 0.2680441 0  
-0.2680441 0.080500565 0  
-0.13753757 -0.45578164 0  
0.45578164 -0.13753757 0  
0.13753757 0.45578164 0  
-0.45578164 0.13753757 0  
-0.05507968 -0.12135967 0  
0.14172421 -0.09428923 0  
0.2571752 -0.19664502 0  
[...]
POINT_DATA 2173 
SCALARS T float 
LOOKUP_TABLE default 
1.1672963924443165e-24 
6.268011782107128e-32 
4.011240315966906e-25 
-1.9700802073986255e-19 
2.9199667231745083e-24 
-6.377327631541425e-23 
8.199926641524738e-23 
-1.761697557620596e-23 
-3.1511648507423405e-23 
-2.859571374635918e-22 
5.260977287170575e-22 
-1.1883939004666948e-21 
1.5386178686955688e-21 
-6.94746417842554e-22 
1.4550854462421835e-22 
-3.848251475339174e-23 
3.858001267689399e-23 
-3.0382124058510864e-23 
8.446757834395492e-24 
1.685677004058424e-24 
2.282065123420165e-25 
-4.0852937349459574e-25 
-4.8858926317167794e-26 
4.330977327672723e-26 
-4.265174372092926e-26 
2.3479437295078619e-26 
7.097590317111243e-27 
-1.1944146410621893e-27 
1.0737705511981476e-28 
3.090262920644402e-29 
2.619901192499266e-29 
-1.819116430984243e-30 
3.6035891980015416e-31 
3.810904061354038e-30 
4.138293194617542e-30 
2.1372364614054852e-30 
6.686711960335019e-31 
-3.6047902038942395e-31 
-2.760058121425912e-31 
8.834224653291763e-32 
-1.5451568563090049e-31 
-4.051831477592882e-31 
1.5356850840663873e-31 
-1.4871153538272467e-31 
-7.424210951204503e-31 
1.4893032555596553e-30 
-5.705556818837953e-31 
-8.764504275534713e-32 
-5.403539682679714e-30 
1.171752784650635e-29 
-2.9658759529263876e-29 
4.503129732787315e-29 
-2.727381329501777e-29 
-9.295443657947698e-30 
4.557141072560935e-29 
-1.1946467652424156e-28 
3.845809409177845e-28 
-7.689595788956365e-28 
1.024102565340903e-27 
-1.1765388712320522e-27 
8.570007896403389e-28 
-8.227670054074105e-28 
7.3338375652109065e-28 
2.858147687000314e-27 
-1.0360815864588066e-26 
2.4567975490247843e-26 
-2.7737004127854317e-26 
9.39326038090188e-26 
-1.836841594789218e-25 
3.1496861621593157e-25 
-6.224055317560686e-25 
5.9601465595163535e-25 
1.499649020765082e-24 
-3.7995891369827423e-25 
-3.938337635133164e-25 
-6.709863508052459e-25 
3.378583236047993e-24 
1.740062428538017e-24 
-4.1772367365764607e-26 
1.949703880245658e-24 
1.1037801966573627e-24 
1.0348603056434914e-24 
-9.707849549282569e-25 
-6.019142310236149e-24 
1.0792278876665723e-23 
-3.3010625114445592e-24 
-2.183984046177809e-24 
-2.1350043452330233e-23 
-1.9657556717647955e-23 
3.349738600212287e-22 
-1.4661997120189263e-21 
3.7352700678142355e-21 
-6.35282082377149e-21 
8.238203636278797e-21 
-1.6186354009974012e-20 
4.5061679837920636e-20 
-7.88699650745094e-20 
8.857991826659241e-20 
-9.55611448244203e-20 
-2.844692818608147e-20 
1.199370080697747e-19 
-7.387422767044586e-20 
5.3164105365258066e-20 
5.750436366773356e-20 
-7.541643601938772e-19 
3.699055432409541e-18 
1.5865641888121231e-18 
1.7240379737090034e-18 
-2.74609895201233e-19 
3.2002313266169478e-18 
-8.528895241550032e-18 
2.0144221393596813e-17 
2.4606916043585027e-17 
1.594756705779382e-17 
5.6800430119794464e-18 
2.845380849922062e-18 
3.622290793393814e-20 
1.0737827338088478e-19 
4.3442526263823885e-19 
-6.008881846821637e-19 
-8.247513591908993e-19 
5.49360743945795e-19 
2.3392335817461994e-18 
-5.917759282300033e-18 
2.9253069816225517e-18 
-1.8799930503086165e-19 
4.6316347619332565e-18 
-6.232153149043233e-18 
-1.2206818318671882e-17 
5.04835356954796e-17 
-7.535706665163959e-17 
6.083659864173735e-17 
-1.1026466607260933e-17 
-7.68060817362193e-17 
-4.455580907613121e-17 
3.9156024121995446e-16 
-5.265462687514674e-16 
4.238816882321089e-16 
-3.892872771270266e-16 
1.609301746710936e-17 
2.4917294016317793e-17 
8.338842967165242e-17 
-2.454129429530595e-16 
3.169125452434894e-16 
-2.337491885454942e-16 
-1.171699593732545e-17 
-3.012968834118901e-17 
3.7594197133766954e-19 
-5.464011878133654e-18 
-7.245325861291106e-18 
-6.4305425569891675e-18 
-3.725867950269436e-18 
-1.6723613134371016e-18 
-3.94148117863622e-19 
-1.0048668251069945e-19 
7.179854944160712e-22 
-2.567370612743415e-22 
-6.933619895970616e-22 
-3.941301951935592e-22 
-3.8066668244385344e-23 
1.7236051401689646e-7 
0.009891962030229537 
-2.0581229331908204e-14 
1.3429057653832284e-9 
0.0008444158220463232 
0.1778270791191699 
1.1678912510050394e-10 
-1.6023238404097048e-15 
8.816087276592263e-7 
-2.3329154443272823e-17 
-7.2356349786267e-11 
9.840445874780408e-5 
-1.8142272438188618e-7 
0.08839247300302068 
-2.900854979028508e-10 
-2.6425630749828416e-9 
-0.00013440269675573838 
-1.485979660646556e-8 
-5.3942431002548495e-15 
2.4157447746300748e-8 
0.0002563940749623347 
-1.574462522289091e-14 
3.535773738145849e-13 
7.949593652892914e-7 
0.019749552108514305 
2.8713397017455696e-5 
-1.273664176119824e-11 
-1.3628589271324273e-7 
-0.0010064373046991479 
-7.352210043196966e-11 
2.4097443617794117e-14 
1.379679462930206e-6 
0.0012393918727442738 
-2.149766254765055e-16 
4.633874649841893e-9 
-1.2638883302059212e-5 
-7.577521557078403e-9 
-4.8523289423511664e-17 
5.557127933076811e-12 
4.261206394305379e-5 
-8.391100177094191e-6 
0.819558033358356 
3.675903890255022e-12 
-6.646076424278704e-12 
-4.071743366532177e-6 
1.5102330130571216e-5 
-2.203307722928137e-13 
4.481818778889173e-9 
0.0016348437966051642 
-2.819875545899887e-9 
-4.434628075955176e-18 
1.4393625311711797e-11 
-1.7569230318692958e-6 
3.6072245281369716e-13 
1.2737632307741169e-13 
2.429621742600414e-6 
0.0018580318623862477 
4.464258043603017e-16 
5.425470689395432e-10 
0.001017102822704224 
-2.857790945690662e-7 
0.006020906639137485 
-3.924446184767118e-15 
-5.632796277387794e-11 
9.989740727861419e-5 
0.000905864299274918 
7.859006675829249e-5 
7.024081414351924e-10 
-4.688865083088655e-6 
0.025805470247984214 
-0.0011820087183909863 
1.6277549088528353e-12 
5.193000439975756e-10 
-3.629038617300008e-17 
5.128281576556924e-11 
2.3508735855566116e-6 
-6.5792633873788726e-9 
4.200559768450197e-18 
-1.9272992046566157e-12 
1.556042062485739e-5 
-2.9806175570013083e-7 
0.2749035986079069 
3.1697945014583726e-9 
-8.103289519191412e-11 
-4.291058150892151e-6 
-1.5889998673876826e-10 
8.718628683489629e-16 
1.642291567487982e-7 
0.0006972387276667305 
3.443932929250256e-16 
1.1196279093826342e-13 
1.1479906470420374e-5 
-2.4357379683398875e-5 
0.2001325585348136 
9.266481322888296e-13 
1.5705791960350938e-13 
-5.595965543606563e-6 
5.680008004463383e-8 
-0.002514042350461444 
-1.791990864838734e-8 
1.453656664769296e-14 
1.4874325086370714e-7 
-2.237249465282711e-16 
2.6231183184630098e-8 
0.0011910822019662371 
-8.166156921742579e-10 
-9.117699190949567e-8 
-1.3584513478173566e-5 
-3.0834928765658906e-11 
-6.96013661795157e-15 
5.729997491924025e-10 
-0.00032606892843904195 
2.521708227392745e-6 
0.01236189128988874 
-1.3293311036558677e-7 
-1.7215211321363044e-12 
1.0387000269439364e-7 
5.666291317005762e-7 
0.062331229567976404 
1.8378648284243917e-14 
1.1194779389252564e-10 
0.00042154865201463423 
4.3987123445949796e-13 
-3.925621985807801e-15 
5.5649216925732155e-8 
0.0009397053621967547 
-2.163879196991516e-9 
0.00020358633943219832 
0.026487021124401645 
-6.74923078548625e-11 
5.837162358434089e-14 
1.5149125756324976e-6 
-3.3816258444310205e-8 
-4.3477881480988324e-16 
4.155212005532676e-9 
1.414516270740958e-5 
3.0801256401313015e-8 
1.3305304463239403e-16 
5.364899736116002e-11 
0.00020630925541725205 
0.22527311550922968 
6.844977079091106e-13 
3.137412384096096e-10 
7.342686332489939e-5 
0.007920408450072568 
-1.784893821480748e-5 
4.199055619148096e-15 
-4.5140411008180695e-14 
2.462395120163711e-7 
-3.979407810496372e-10 
-1.6170669910758976e-18 
-3.9766995972113035e-12 
2.478167197402899e-6 
-2.279128870570998e-9 
-4.049466128336613e-17 
-7.203255719038903e-10 
1.177785700579265e-5 
5.540239624619332e-18 
3.302519341183689e-13 
2.4583222157519087e-5 
-2.6999346107612405e-6 
-2.481672796426895e-7 
-5.243187778021181e-16 
8.000979435159591e-10 
0.0003145316846647869 
-2.8833509109562846e-13 
1.6988615581957184e-15 
1.0988048177395899e-7 
-0.0004450438192376942 
0.0006874478333313264 
2.764972778374349e-15 
-8.169358940575816e-13 
2.473862647525655e-5 
0.039352694750086556 
-1.6290290160238186e-10 
5.135072787568861e-7 
0.6064967655238631 
-9.676876998720964e-11 
-8.713151845319342e-11 
4.419381136271785e-5 
0.7232664493135278 
3.0222445971801737e-10 
-1.2876646219696687e-12 
3.69250026774005e-6 
-5.943705344045622e-18 
-6.002764056147543e-11 
7.860842896264272e-6 
-1.3729298734546327e-9 
-2.2128984194324926e-8 
7.075125165798699e-19 
-6.175774534124569e-13 
2.250350193150088e-6 
3.459840287179738e-13 
8.58967676025777e-12 
5.7740377866887146e-5 
0.2576650368821805 
0.0006971153474537201 
-1.4410481319983213e-12 
1.061357224779335e-8 
-0.0034482261250148357 
-1.430955052056028e-9 
-7.059850507467859e-15 
1.7322236285172565e-7 
0.0008584157938283462 
-1.5230566652286493e-15 
-1.363814296255784e-10 
-4.707122805306855e-5 
0.0014845129589817732 
-7.352853895329398e-6 
7.667274667396996e-18 
-4.564293010612511e-13 
-1.0559389688563364e-6 
9.10229494033233e-18 
3.9754767822456724e-11 
-1.0526319764250196e-5 
-2.100889965995284e-8 
5.811400644605062e-5 
0.001614843292630511 
1.0159628177950416e-14 
-1.3383651605315493e-9 
-0.0007767719957248913 
2.3284685860062274e-6 
2.2965775040245744e-16 
2.000820946653262e-10 
0.00015281077306422426 
4.826903932713024e-15 
7.733638077380848e-14 
-1.8953180300591403e-6 
0.002249099387611 
-1.3555407678223462e-7 
-7.328262845806637e-14 
6.273710418421314e-8 
-0.0022350304212412925 
0.005253017977975488 
-3.275440374180093e-10 
6.17152547163715e-7 
0.027603390722412444 
1.453787658569542e-14 
1.55583608466097e-11 
0.00017004619287520732 
0.20071880917057608 
3.181703265423854e-12 
-6.217362016937393e-10 
3.5361943449938876e-5 
-1.394648772240228e-9 
-8.006449123922646e-16 
-8.271866588390663e-10 
0.00016227619124150827 
-8.529313167468995e-5 
3.3257344471108875e-14 
7.302108829924928e-16 
-6.323133886464049e-7 
3.31331658897689e-17 
-5.8290331633744305e-12 
4.1312087085701186e-5 
-1.004617155302025e-7 
-5.087313955445374e-5 
2.0024854304857056e-12 
1.338094521382436e-13 
3.0544223982478224e-6 
-3.537835639525127e-17 
3.0399421241889486e-9 
-3.9081720077947404e-5 
-1.7523651804899667e-10 
-9.815644913866022e-8 
0.001726079127096885 
-2.6412557189257443e-8 
3.971734775547261e-18 
6.188120126126893e-10 
-2.6357892935294616e-5 
2.3753729852160873e-8 
-1.1257297962324735e-7 
-5.570537615897879e-13 
1.854114137758837e-7 
0.01079259084425695 
-5.84571256372933e-11 
4.1844180418697207e-16 
5.8692085005721527e-8 
0.000207079536683523 
0.0001496406466790458 
1.9013650607257198e-12 
2.1559077901447904e-14 
4.183086222571784e-9 
0.0010058225007129177 
0.00013559482941256825 
-5.3771920497273405e-11 
5.744427559091297e-7 
-1.6121683549210626e-8 
-7.68010520414312e-18 
1.6091841572519997e-10 
-1.5112483916350297e-5 
1.3174251476294214e-18 
-2.3060752621045134e-10 
1.7147955792432186e-5 
-1.890631481951384e-10 
4.633258118836837e-19 
1.8653611769764528e-13 
-4.241500211330158e-7 
1.4839792063784644e-7 
-5.694576212378672e-9 
-2.4995252959715017e-5 
0.617776566904488 
6.849552408207915e-12 
-3.004019853997177e-12 
-7.529605876370181e-6 
5.873393412727657e-6 
-3.1806723417265243e-11 
2.2325953427156597e-6 
1.7687641612591304e-7 
7.533283952003059e-15 
-1.1863495892815484e-6 
0.06785819943692196 
0.21680224840070308 
-6.050996510127006e-9 
-1.0792130279567425e-11 
2.388703935217028e-6 
-1.1922189185210295e-5 
1.6742556893053166e-17 
-6.491447351948309e-14 
9.174675324978988e-7 
-5.759002329885554e-10 
2.2320581710238426e-9 
6.776475645355585e-16 
1.0177805535233331e-13 
2.0860471369228972e-5 
0.0006973259458230874 
0.0016868294146125513 
-1.1054452687387691e-16 
9.91135605492157e-10 
9.059667181042145e-5 
-2.2578808628561724e-8 
0.005536854356319343 
-1.8226227494067753e-9 
-5.613149030756462e-14 
-1.0226771151810959e-7 
-1.4358379664152158e-12 
1.5912303432043532e-15 
1.1026891231547123e-7 
-0.0003350540592969683 
6.951337509177181e-12 
3.7812898019157075e-13 
4.808274896698945e-6 
0.04534622581248376 
0.0429411913771404 
1.6091104441077556e-13 
1.7598911143644014e-12 
2.3469163547846237e-5 
0.028628966787235234 
-0.00035121680180631276 
-1.937837304716246e-13 
-7.196671233936882e-11 
-3.0508591866946507e-18 
1.541104231799989e-12 
4.4735238223654275e-5 
-6.437057437547742e-7 
-1.5832213871100622e-9 
-1.3306715125490178e-15 
-3.135246997054571e-8 
0.0009075244781712712 
-8.405519709383426e-14 
-1.0721899792179034e-15 
-9.200553733282145e-8 
-3.50499827620171e-5 
1.3826268984908106e-6 
2.7000765377254925e-16 
3.2538948775992757e-13 
1.4716549004887314e-5 
-1.4643358355039978e-18 
-1.3476758956137704e-11 
4.638748397778105e-6 
-1.2481195937301054e-10 
4.8549353793842186e-21 
8.30294477102379e-13 
1.7122911746798806e-7 
-6.630721370569249e-10 
0.020527424192893436 
-7.844301912490951e-9 
-6.947289790342172e-13 
7.820358951158495e-7 
0.23733692045102422 
-2.471959261939161e-10 
-1.503063126009278e-5 
-3.729591836460593e-9 
-0.0029116505457775625 
0.27307099259086887 
6.01021050108046e-11 
-7.377983640010748e-14 
-8.733261181456358e-7 
-0.0003679820159807408 
-1.544920039149038e-11 
8.224254035912509e-15 
4.996659761351831e-7 
1.9027803855192327e-9 
0.020340889255961548 
5.933779277683353e-16 
5.298390421619783e-10 
0.0005523931632169925 
-7.147745144952057e-17 
-7.960654834641606e-9 
0.00035467529259983687 
-7.020051494451644e-11 
-2.837553118475425e-7 
0.5195131696348371 
8.78679306643323e-13 
-9.227975932741472e-11 
9.681851568709794e-5 
9.828980483697302e-14 
5.7592116483068935e-15 
-1.2844898730989957e-7 
0.00035330061950815584 
4.084565478924359e-14 
2.313089939857489e-8 
-9.524049618290178e-5 
5.0155316473173666e-5 
-2.2115804002013184e-8 
5.512636844822307e-5 
9.643365828644477e-16 
1.536707292392236e-10 
0.00030125879791718094 
0.00013716695186373527 
0.0005163585287867978 
8.433465226308166e-10 
9.060285633854869e-15 
4.056162302417978e-8 
0.00029756456307689235 
3.555545643599171e-16 
8.580156339668387e-12 
-4.10281425554019e-5 
1.1802854067782212e-5 
-1.312066238370538e-12 
-1.0562170168183989e-7 
-0.003523447244308514 
-1.3662535067333738e-15 
9.691675160189722e-10 
0.00021400676323788713 
2.2738734233748007e-8 
9.036712590155877e-10 
-1.8440018223807478e-16 
4.634033846281712e-9 
-8.16123848436066e-5 
-1.5871399219306427e-8 
-3.4294293139308528e-15 
3.2246200714395644e-9 
-0.0005741382778260071 
4.880495216697181e-7 
-5.043081826192922e-15 
5.994824078755125e-10 
-0.00011841190780694127 
3.749354283868942e-9 
-0.0007669488161378208 
4.815633479789284e-18 
4.8074471944424276e-14 
1.0115361904681517e-6 
1.9627283864032998e-5 
-3.895787339960739e-11 
-5.1385991941555e-19 
-2.2895205223500627e-12 
1.8493701818928957e-6 
0.2808069995342494 
1.4884988583925956e-13 
-6.7913736432300296e-12 
-2.748878026013221e-5 
0.023243082239210986 
3.544575769761542e-12 
-2.177978213228334e-8 
9.347053045255158e-6 
2.82688768653079e-8 
-7.223916356149302e-10 
-7.391322928787407e-16 
9.833784290836263e-9 
0.0021164828927321693 
1.2178181090930442e-7 
-9.301825447386026e-9 
8.152079141192561e-19 
4.29128232968763e-11 
-1.782104651554406e-5 
-9.423535059111626e-14 
-5.187549250892421e-11 
9.284475749381185e-5 
0.07732891568553477 
-3.541845773323843e-12 
2.20355139074038e-14 
7.696101446545265e-7 
-0.0014696836519027035 
0.007722294803329231 
0.0012046993472588435 
0.005751177326989656 
-1.6923119875988358e-13 
1.5589805445556574e-13 
6.173487590177308e-13 
1.1863090216388737e-9 
-1.311024127273015e-9 
-1.9357502313886258e-9 
-0.0004133432770981234 
0.0023778119689579482 
0.0006471662881255844 
2.1289658701309218e-7 
2.1944850358399204e-6 
4.706913466650769e-6 
2.4801108341592943e-12 
-1.1572196750360637e-12 
8.511779498848383e-13 
3.8805245942365757e-7 
5.94795584645758e-7 
-3.6228073377311084e-7 
0.04221329003536349 
0.022953909357592756 
0.022242266925999354 
0.027193614319253923 
0.005133153463766561 
-0.0003861596428418623 
0.0016290901875700482 
-4.569729282211855e-13 
-1.585472018637315e-13 
1.800232784591765e-9 
-4.0235715523510525e-9 
0.016706803317447807 
-0.0028066633280752168 
1.5987922732824284e-6 
3.332940971645673e-5 
-2.519889029268926e-13 
3.461955207341222e-12 
1.0024928239923203e-7 
1.6160409842473285e-7 
-6.114076045432842e-8 
2.4642508633071362e-8 
1.7099374144418004e-7 
0.14891294049468312 
0.05212992864629628 
0.030596478420994885 
0.019498981008255714 
0.08059716340378886 
5.908298760723801e-9 
1.0296245236498359e-9 
-6.022678921183039e-10 
9.969602506424849e-17 
4.6845528231061933e-17 
-9.045339278888093e-17 
1.3895912400186458e-9 
4.2159052992494775e-10 
-5.2610676128784055e-9 
5.725761907322563e-5 
2.4401361647799888e-5 
-0.00016895995448116687 
-1.0058984970561063e-9 
1.3590021298118012e-10 
2.7063252929559864e-19 
-3.835424878814929e-20 
-1.026595870060431e-12 
9.129687518485249e-15 
-4.1887627962812975e-8 
-4.245562585616608e-8 
6.799887645204417e-11 
-2.7116564455258902e-11 
1.434422547882576e-18 
-5.398367298668252e-19 
1.2631239285321463e-11 
-4.084215153773647e-12 
-4.566728173798196e-6 
2.2076350747557425e-6 
0.07271471624765116 
0.0404351873456122 
0.08146355606620442 
-1.6297448314045186e-9 
3.623148550414918e-10 
1.8211031026436516e-10 
4.832034497676818e-13 
-6.723232008788959e-14 
-1.2088985624931054e-13 
-9.72150658761568e-7 
-4.717467624976954e-7 
2.5528056241392273e-7 
1.861409917174947e-17 
8.681513411188717e-18 
-1.1072404342262892e-17 
-2.8434990167717603e-10 
4.0243025489155933e-10 
7.306499262788984e-11 
1.653463252152593e-5 
-2.1762971608188578e-5 
-2.7369008720335563e-6 
7.146346539037406e-10 
7.334287100076935e-10 
-4.4059093120064804e-10 
-1.3232757088350214e-19 
3.3715903130765656e-19 
-9.54598180954417e-19 
4.8365065950377744e-14 
-7.238125544088596e-13 
1.6326113596897543e-13 
-3.700521590311953e-6 
4.1384086333914185e-6 
-8.627299291098588e-6 
3.5485152841056864e-7 
4.214525969073278e-7 
1.2722035638913823e-6 
-5.479109968237505e-10 
-1.8848629432969327e-17 
8.904748377791208e-10 
-4.070321478273815e-5 
-2.3501708569672196e-18 
-4.1997369650535355e-13 
-8.391274848502147e-6 
2.4193951432811077e-6 
1.761966432700538e-18 
-1.314315348429735e-20 
1.3357029046853678e-12 
-2.5214976718272236e-13 
2.5653807162479354e-6 
3.44319539057411e-6 
-5.193217786418903e-6 
2.521680763297489e-6 
0.0057651653891974425 
0.01615577017791483 
0.0023866845565836004 
4.1637297808168504e-8 
3.796076682786367e-9 
-8.038331353779683e-20 
-6.077785876162219e-19 
-3.3704045444875323e-13 
2.2067606094686833e-12 
-1.3050044114795534e-6 
-6.38493498594951e-7 
-2.61532890355136e-10 
4.816755660997652e-10 
-4.226611532473869e-18 
3.0629193803041325e-18 
-4.4022937685162363e-11 
3.162508441673009e-11 
1.0290392717160593e-5 
-7.507165081183569e-6 
0.01184243558819149 
0.002891460283154834 
3.736613463462353e-9 
-2.9907470929847647e-10 
1.8928062958556474e-13 
-1.0173432134568165e-14 
2.155005747819026e-7 
-2.231933125954551e-7 
-3.958992732857112e-6 
1.6347209623706862e-6 
1.3295561133510316e-5 
3.593422412140273e-17 
8.999179560373165e-18 
-1.029195861080257e-16 
8.167331182486094e-12 
-8.091789359266947e-12 
-2.1568038398533394e-11 
6.887534365230305e-5 
-6.969310516887942e-5 
-0.0001312794261758184 
-5.303532349772276e-7 
1.8620426674892232e-7 
-2.832591398601971e-10 
-2.3076607320068456e-9 
7.0101911172884e-17 
2.0900716111760043e-16 
1.3072159921773375e-8 
-7.1844417829118335e-9 
0.00037795271748283224 
8.433800057866941e-5 
-1.2627656573994784e-16 
-1.248038615080779e-14 
1.3624627690615422e-15 
-2.3174545888797823e-13 
7.61096852732075e-14 
4.8465514016559794e-14 
-1.7085950710578134e-6 
3.3539364412220837e-6 
-5.136203869996938e-6 
6.570628354912314e-5 
0.0002642054753406283 
0.00014911726957813744 
-8.988034035485676e-18 
-6.4571543033643704e-18 
2.2739649576720712e-17 
-7.0699845932618356e-12 
-9.412289265276779e-11 
1.0754593632155528e-10 
-1.8580437973961997e-5 
3.40509643078001e-5 
-5.32243353478128e-5 
7.009618030788419e-8 
-1.6655972446252348e-8 
4.29064998396585e-8 
1.3923067060837287e-7 
5.529519993557414e-7 
2.0461321757319462e-17 
-9.70726495307634e-17 
7.786185635040959e-12 
-2.0763181546510714e-11 
4.021743534410492e-6 
-3.476272870638835e-5 
0.0009006897237603105 
0.008954971548952867 