# vtk DataFile Version 3.0 
Unstructured Grid 
ASCII 
DATASET UNSTRUCTURED_GRID
POINTS 2173 float 
-0.5 -0.5 0  
0.5 -0.5 0  
0.5 0.5 0  
-0.5 0.5 0  
-0.475 -0.5 0  
-0.45 -0.5 0  
-0.425 -0.5 0  
-0.4 -0.5 0  
-0.375 -0.5 0  
-0.35 -0.5 0  
-0.325 -0.5 0  
-0.3 -0.5 0  
-0.275 -0.5 0  
-0.25 -0.5 0  
-0.225 -0.5 0  
-0.2 -0.5 0  
-0.175 -0.5 0  
-0.15 -0.5 0  
-0.125 -0.5 0  
-0.1 -0.5 0  
-0.075 -0.5 0  
-0.05 -0.5 0  
-0.025 -0.5 0  
-1.3761214e-12 -0.5 0  
0.025 -0.5 0  
0.05 -0.5 0  
0.075 -0.5 0  
0.1 -0.5 0  
0.125 -0.5 0  
0.15 -0.5 0  
0.175 -0.5 0  
0.2 -0.5 0  
0.225 -0.5 0  
0.25 -0.5 0  
0.275 -0.5 0  
0.3 -0.5 0  
0.325 -0.5 0  
0.35 -0.5 0  
0.375 -0.5 0  
0.4 -0.5 0  
0.425 -0.5 0  
0.45 -0.5 0  
0.475 -0.5 0  
0.5 -0.475 0  
0.5 -0.45 0  
0.5 -0.425 0  
0.5 -0.4 0  
0.5 -0.375 0  
0.5 -0.35 0  
0.5 -0.325 0  
0.5 -0.3 0  
0.5 -0.275 0  
0.5 -0.25 0  
0.5 -0.225 0  
0.5 -0.2 0  
0.5 -0.175 0  
0.5 -0.15 0  
0.5 -0.125 0  
0.5 -0.1 0  
0.5 -0.075 0  
0.5 -0.05 0  
0.5 -0.025 0  
0.5 -1.3761214e-12 0  
0.5 0.025 0  
0.5 0.05 0  
0.5 0.075 0  
0.5 0.1 0  
0.5 0.125 0  
0.5 0.15 0  
0.5 0.175 0  
0.5 0.2 0  
0.5 0.225 0  
0.5 0.25 0  
0.5 0.275 0  
0.5 0.3 0  
0.5 0.325 0  
0.5 0.35 0  
0.5 0.375 0  
0.5 0.4 0  
0.5 0.425 0  
0.5 0.45 0  
0.5 0.475 0  
0.475 0.5 0  
0.45 0.5 0  
0.425 0.5 0  
0.4 0.5 0  
0.375 0.5 0  
0.35 0.5 0  
0.325 0.5 0  
0.3 0.5 0  
0.275 0.5 0  
0.25 0.5 0  
0.225 0.5 0  
0.2 0.5 0  
0.175 0.5 0  
0.15 0.5 0  
0.125 0.5 0  
0.1 0.5 0  
0.075 0.5 0  
0.05 0.5 0  
0.025 0.5 0  
1.3761214e-12 0.5 0  
-0.025 0.5 0  
-0.05 0.5 0  
-0.075 0.5 0  
-0.1 0.5 0  
-0.125 0.5 0  
-0.15 0.5 0  
-0.175 0.5 0  
-0.2 0.5 0  
-0.225 0.5 0  
-0.25 0.5 0  
-0.275 0.5 0  
-0.3 0.5 0  
-0.325 0.5 0  
-0.35 0.5 0  
-0.375 0.5 0  
-0.4 0.5 0  
-0.425 0.5 0  
-0.45 0.5 0  
-0.475 0.5 0  
-0.5 0.475 0  
-0.5 0.45 0  
-0.5 0.425 0  
-0.5 0.4 0  
-0.5 0.375 0  
-0.5 0.35 0  
-0.5 0.325 0  
-0.5 0.3 0  
-0.5 0.275 0  
-0.5 0.25 0  
-0.5 0.225 0  
-0.5 0.2 0  
-0.5 0.175 0  
-0.5 0.15 0  
-0.5 0.125 0  
-0.5 0.1 0  
-0.5 0.075 0  
-0.5 0.05 0  
-0.5 0.025 0  
-0.5 1.3761214e-12 0  
-0.5 -0.025 0  
-0.5 -0.05 0  
-0.5 -0.075 0  
-0.5 -0.1 0  
-0.5 -0.125 0  
-0.5 -0.15 0  
-0.5 -0.175 0  
-0.5 -0.2 0  
-0.5 -0.225 0  
-0.5 -0.25 0  
-0.5 -0.275 0  
-0.5 -0.3 0  
-0.5 -0.325 0  
-0.5 -0.35 0  
-0.5 -0.375 0  
-0.5 -0.4 0  
-0.5 -0.425 0  
-0.5 -0.45 0  
-0.5 -0.475 0  
-0.002115384 -0.00023065208 0  
-0.20714286 -0.20714286 0  
0.20714286 -0.20714286 0  
0.20714286 0.20714286 0  
-0.20714286 0.20714286 0  
-0.28155318 -0.0017231192 0  
0.0017231192 -0.28155318 0  
0.28155318 0.0017231192 0  
-0.0017231192 0.28155318 0  
0.3319978 -0.33098683 0  
0.33098683 0.3319978 0  
-0.3319978 0.33098683 0  
-0.33098683 -0.3319978 0  
-0.14015679 -0.06698606 0  
0.06698606 -0.14015679 0  
0.14015679 0.06698606 0  
-0.06698606 0.14015679 0  
-0.1387125 -0.34573975 0  
0.34573975 -0.1387125 0  
0.1387125 0.34573975 0  
-0.34573975 0.1387125 0  
0.14046866 -0.34602854 0  
0.34602854 0.14046866 0  
-0.14046866 0.34602854 0  
-0.34602854 -0.14046866 0  
-0.05869875 -0.16617337 0  
0.18217777 -0.061504476 0  
0.062312964 0.18362015 0  
-0.18362015 0.062312964 0  
-0.034321424 -0.38563195 0  
0.38563195 -0.034321424 0  
0.034321424 0.38563195 0  
-0.38563195 0.034321424 0  
0.39586002 -0.2428538 0  
0.2428538 0.39586002 0  
-0.39586002 0.2428538 0  
-0.2428538 -0.39586002 0  
0.23688246 -0.38952246 0  
0.38952246 0.23688246 0  
-0.23688246 0.38952246 0  
-0.38952246 -0.23688246 0  
-0.24287231 -0.09948847 0  
0.09948847 -0.24287231 0  
0.24287231 0.09948847 0  
-0.09948847 0.24287231 0  
-0.11560815 -0.24300627 0  
0.24300627 -0.11560815 0  
0.11560815 0.24300627 0  
-0.24300627 0.11560815 0  
-0.40192315 -0.4008276 0  
0.4008276 -0.40192315 0  
0.40192315 0.4008276 0  
-0.4008276 0.40192315 0  
0.06409326 -0.40289903 0  
0.40289903 0.06409326 0  
-0.06409326 0.40289903 0  
-0.40289903 -0.06409326 0  
0.2962961 -0.23982804 0  
0.23982804 0.2962961 0  
-0.2962961 0.23982804 0  
-0.23982804 -0.2962961 0  
-0.28087237 -0.21196799 0  
0.21196799 -0.28087237 0  
0.28087237 0.21196799 0  
-0.21196799 0.28087237 0  
-0.0901279 0.007867504 0  
-0.05002927 -0.07494272 0  
0.0873353 -0.009871756 0  
0.0071518295 0.09216282 0  
-0.14120433 -0.1484696 0  
-0.14581114 0.13960092 0  
0.1458264 -0.14505939 0  
0.13960092 0.14581114 0  
0.41838804 -0.3182741 0  
0.3182741 0.41838804 0  
-0.41838804 0.3182741 0  
-0.3182741 -0.41838804 0  
0.32118136 -0.41712493 0  
0.41712493 0.32118136 0  
-0.32118136 0.41712493 0  
-0.41712493 -0.32118136 0  
-0.19707234 -0.014843048 0  
0.018050108 -0.20183705 0  
0.19707234 0.014843048 0  
-0.014843048 0.19707234 0  
-0.10938372 -0.41847488 0  
0.41847488 -0.10938372 0  
0.10938372 0.41847488 0  
-0.41847488 0.10938372 0  
0.15773043 -0.4267032 0  
0.4267032 0.15773043 0  
-0.15773043 0.4267032 0  
-0.4267032 -0.15773043 0  
-0.3204562 -0.07174808 0  
0.07174808 -0.3204562 0  
0.3204562 0.07174808 0  
-0.07174808 0.3204562 0  
0.02801032 -0.07269879 0  
-0.31817523 0.069836795 0  
-0.069836795 -0.31817523 0  
0.31817523 -0.069836795 0  
0.069836795 0.31817523 0  
0.43106207 -0.17757268 0  
0.17757268 0.43106207 0  
-0.43106207 0.17757268 0  
-0.17757268 -0.43106207 0  
0.0703783 0.071201205 0  
-0.051593844 0.064346604 0  
0.099701226 -0.08333426 0  
0.2863281 -0.17248559 0  
0.17248559 0.2863281 0  
-0.2863281 0.17248559 0  
-0.17248559 -0.2863281 0  
-0.2341888 0.04979648 0  
-0.049194112 -0.231281 0  
0.23358595 -0.04946041 0  
0.04979648 0.2341888 0  
-0.009939441 -0.13691185 0  
-0.26560438 -0.17864102 0  
0.17864102 -0.26560438 0  
0.26560438 0.17864102 0  
-0.17864102 0.26560438 0  
0.013302229 -0.43510666 0  
0.43510666 0.013302229 0  
-0.013302229 0.43510666 0  
-0.43510666 -0.013302229 0  
0.09432827 0.114700764 0  
-0.11539384 0.093188405 0  
-0.3413634 -0.005100272 0  
0.005100272 -0.3413634 0  
0.3413634 0.005100272 0  
-0.005100272 0.3413634 0  
-0.19817708 -0.3508856 0  
0.3508856 -0.19817708 0  
0.19817708 0.3508856 0  
-0.3508856 0.19817708 0  
-0.34100306 -0.27216324 0  
0.27216324 -0.34100306 0  
0.34100306 0.27216324 0  
-0.27216324 0.34100306 0  
-0.20269383 -0.14403741 0  
0.14393912 -0.2028372 0  
0.2026342 0.14393856 0  
-0.14393856 0.2026342 0  
-0.1030633 -0.10524017 0  
-0.4394695 -0.104853734 0  
0.104853734 -0.4394695 0  
0.4394695 0.104853734 0  
-0.104853734 0.4394695 0  
-0.44156647 -0.44156647 0  
0.44156647 -0.44156647 0  
0.44156647 0.44156647 0  
-0.44156647 0.44156647 0  
-0.2683254 -0.44465622 0  
0.44465622 -0.2683254 0  
0.2683254 0.44465622 0  
-0.44465622 0.2683254 0  
0.2654342 -0.4435478 0  
0.4435478 0.2654342 0  
-0.2654342 0.4435478 0  
-0.4435478 -0.2654342 0  
-0.27373606 -0.34534052 0  
0.34534052 -0.27373606 0  
0.27373606 0.34534052 0  
-0.34534052 0.27373606 0  
-0.05307205 -0.4481981 0  
0.4481981 -0.05307205 0  
0.05307205 0.4481981 0  
-0.4481981 0.05307205 0  
-0.35614902 -0.19390328 0  
0.19390328 -0.35614902 0  
0.35614902 0.19390328 0  
-0.19390328 0.35614902 0  
-0.14022674 -0.012452113 0  
0.14171903 0.011271359 0  
-0.01125192 0.14089845 0  
-0.19556868 -0.06932378 0  
0.070511825 -0.19668652 0  
0.19556868 0.06932378 0  
-0.06932378 0.19556868 0  
-0.24951252 -0.039742906 0  
0.04037078 -0.2503529 0  
0.24951252 0.039742906 0  
-0.039742906 0.24951252 0  
0.44100407 -0.36164257 0  
0.36164257 0.44100407 0  
-0.44100407 0.36164257 0  
-0.36164257 -0.44100407 0  
-0.4451273 -0.36589316 0  
0.36589316 -0.4451273 0  
0.4451273 0.36589316 0  
-0.36589316 0.4451273 0  
0.1121834 -0.30242515 0  
0.30242515 0.1121834 0  
-0.1121834 0.30242515 0  
-0.30242515 -0.1121834 0  
-0.115146436 -0.19087775 0  
0.19190264 -0.11309679 0  
0.11520548 0.19263776 0  
-0.19263776 0.11520548 0  
-0.08287991 -0.37025127 0  
0.37025127 -0.08287991 0  
0.08287991 0.37025127 0  
-0.37025127 0.08287991 0  
0.23791528 -0.24381089 0  
0.24381089 0.23791528 0  
-0.23791528 0.24381089 0  
-0.24381089 -0.23791528 0  
-0.44626984 -0.21174923 0  
0.21174923 -0.44626984 0  
0.44626984 0.21174923 0  
-0.21174923 0.44626984 0  
0.35174853 -0.37705234 0  
0.37705234 0.35174853 0  
-0.35174853 0.37705234 0  
-0.37705234 -0.35174853 0  
-0.048605647 -0.023262763 0  
-0.1551113 -0.21381997 0  
0.21381997 -0.1551113 0  
0.1551113 0.21381997 0  
-0.21381997 0.1551113 0  
-0.29403278 -0.30027482 0  
0.30027482 -0.29403278 0  
0.29403278 0.30027482 0  
-0.30027482 0.29403278 0  
0.12173745 -0.390654 0  
0.390654 0.12173745 0  
-0.12173745 0.390654 0  
-0.390654 -0.12173745 0  
-0.12236246 -0.2979882 0  
0.2979882 -0.12236246 0  
0.12236246 0.2979882 0  
-0.2979882 0.12236246 0  
-0.0945969 -0.046371013 0  
0.035276897 -0.027358124 0  
-0.0076714605 0.051946 0  
-0.30809116 -0.17165439 0  
0.17165439 -0.30809116 0  
0.30809116 0.17165439 0  
-0.17165439 0.30809116 0  
-0.16592422 -0.10879113 0  
0.10700909 -0.1687818 0  
0.16864619 0.10664837 0  
-0.10664837 0.16864619 0  
-0.16784625 -0.38069874 0  
0.38069874 -0.16784625 0  
0.16784625 0.38069874 0  
-0.38069874 0.16784625 0  
-0.4563872 -0.05993889 0  
0.05993889 -0.4563872 0  
0.4563872 0.05993889 0  
-0.05993889 0.4563872 0  
0.31103167 -0.37412483 0  
0.37412483 0.31103167 0  
-0.31103167 0.37412483 0  
-0.37412483 -0.31103167 0  
-0.3909646 -0.012754724 0  
0.012754724 -0.3909646 0  
0.3909646 0.012754724 0  
-0.012754724 0.3909646 0  
0.44915667 -0.21679194 0  
0.21679194 0.44915667 0  
-0.44915667 0.21679194 0  
-0.21679194 -0.44915667 0  
0.045831423 0.12033131 0  
-0.12662303 0.045442794 0  
-0.3107799 -0.37355793 0  
0.37355793 -0.3107799 0  
0.3107799 0.37355793 0  
-0.37355793 0.3107799 0  
0.04152367 0.021693805 0  
-0.08040017 -0.2675595 0  
0.26794365 -0.08044455 0  
0.080500565 0.2680441 0  
-0.2680441 0.080500565 0  
-0.13753757 -0.45578164 0  
0.45578164 -0.13753757 0  
0.13753757 0.45578164 0  
-0.45578164 0.13753757 0  
-0.05507968 -0.12135967 0  
0.14172421 -0.09428923 0  
0.2571752 -0.19664502 0  
[...]
POINT_DATA 2173 
SCALARS T float 
LOOKUP_TABLE default 
9.675251155685888e-21 
3.7174428357048053e-28 
1.034606887702158e-21 
1.5366756040834606e-19 
-3.557045802605324e-20 
-8.716999617137404e-20 
2.044417993911225e-19 
-1.0045971062011916e-19 
-1.0202793682383961e-20 
-1.2820588613538387e-19 
2.262319406339438e-19 
-3.143321916388693e-19 
3.4103165123103904e-19 
1.304586719797371e-19 
-1.7850350012234747e-19 
-2.713254101199822e-20 
1.817950054267908e-20 
-5.383712081562914e-20 
3.2673371799213585e-20 
7.956804472839996e-22 
-3.007702355433943e-23 
-5.399182995463778e-22 
5.622871171700821e-23 
-3.2662992758860406e-22 
2.0699787149840606e-22 
-1.4421092983253403e-22 
-5.656906576777375e-24 
-4.169230670962386e-25 
-4.5594255262376165e-25 
6.893120223912545e-26 
-1.0315408902376893e-25 
4.056081832876206e-26 
3.751004931749784e-26 
-1.0829103788122391e-26 
-2.0213689637758515e-26 
-1.2522251829074436e-26 
-4.2278371303162306e-27 
-7.780115689129367e-28 
5.917734316582424e-28 
2.003767732573267e-29 
7.21771781868635e-29 
6.036689643636901e-28 
1.2546179734110874e-27 
-1.0184950389600274e-27 
-5.155514883392236e-27 
1.0765006807745222e-26 
-4.373072339636996e-27 
-8.971410417303204e-28 
-3.012384364427039e-26 
4.325425541762515e-26 
-4.9579280980716964e-27 
-3.0311611317824424e-25 
1.1352934912373262e-24 
-2.3235656781285983e-24 
4.613277580575719e-24 
-1.0007949573014694e-23 
2.860801364505517e-23 
-5.292744924155206e-23 
6.200863125332684e-23 
-6.087613444639851e-23 
5.08139951598064e-23 
-4.656198160335983e-23 
1.2841242893922234e-22 
-2.534193268933093e-22 
4.827885527624196e-22 
-6.0966133463524415e-22 
5.18304933233287e-22 
1.2942963905923709e-21 
-2.4513869262608703e-21 
5.157952186967727e-21 
-8.705924056921318e-21 
9.353487442444919e-21 
5.161357737203314e-21 
-2.78567408502118e-20 
2.4817482230365893e-20 
-1.754008409061535e-20 
3.505874559575108e-20 
1.150384734280953e-20 
-4.0463255722412278e-22 
-1.0716098562634464e-20 
1.532634127437021e-20 
8.037286090579441e-21 
-5.269045729014136e-21 
-1.9063881046135148e-20 
5.060830073801212e-20 
-3.0865864320520157e-20 
-4.4908737577458934e-23 
-1.111122309189603e-19 
2.849432514434276e-19 
-7.341024080705185e-19 
1.3611351448679228e-18 
-1.503105098691689e-18 
1.126525802550676e-18 
2.3369428327739794e-18 
-7.362922385655193e-18 
2.2655783339124037e-17 
-4.215671086150757e-17 
4.6838279090180164e-17 
-4.315427513805232e-17 
1.3958171540801616e-17 
2.260853038888638e-17 
1.1820134052505675e-18 
-3.3524299649081417e-17 
8.34271316060148e-17 
-1.4990408428417165e-16 
1.94651693553049e-16 
-1.208081816259381e-17 
1.1165987887536496e-16 
-9.717201207748107e-17 
1.1986981886260498e-16 
-6.31251094671627e-17 
5.2848135257971e-17 
-1.2302203133936998e-16 
5.046721101283571e-16 
-9.741631503429023e-18 
2.19865159178321e-16 
5.1148519546440285e-17 
-1.1097800407789756e-18 
-8.454893718431052e-18 
2.7303629888211912e-18 
-1.339229813361259e-17 
8.796317790310914e-18 
-2.5849699979521435e-17 
9.888337053062928e-18 
-1.682864081323557e-17 
-7.025794825276136e-18 
-2.2294113074286413e-17 
6.82636009806177e-19 
3.408651129989699e-16 
-1.0253371097430466e-15 
1.5311792859776926e-15 
-1.4323262613649298e-15 
2.62681724826987e-16 
6.394099751027676e-16 
-1.4779196760734449e-15 
2.2096966172286565e-15 
-1.853574985833345e-15 
8.460002999118635e-16 
6.834210120902681e-16 
-1.6989413090690805e-15 
2.3724369843137156e-15 
-2.211799195512919e-15 
1.920482231482092e-15 
-5.477723053309106e-16 
-3.918187346765268e-17 
1.132373338344426e-16 
9.862934055593813e-18 
2.0526158258408757e-17 
-5.2260640668215143e-17 
-5.24083621368664e-18 
-2.378822015929009e-16 
-1.7987535159360094e-16 
-1.279994509977979e-16 
-4.027811705379676e-17 
-2.2784455966935743e-17 
-5.352735994717771e-19 
2.0614906905712705e-19 
3.3742443082093995e-19 
8.600637127704245e-20 
5.341224056866996e-20 
-3.8664208816934725e-8 
0.33454193822990586 
-6.000695326473943e-12 
8.528444297904164e-7 
0.00209304825302662 
0.012126772378926459 
-2.7911472323904926e-7 
6.637697710504274e-10 
4.078686608085546e-5 
-1.0337882620728288e-13 
-1.6759531990037557e-7 
-0.00025684950142042294 
-3.4196202806195085e-5 
0.08874022948110595 
-5.627244171700777e-9 
-8.095358573154318e-8 
-0.0006212027662199186 
-5.910612276289353e-6 
-8.125835607211493e-12 
-2.333549131747713e-6 
-0.0005625667362431903 
3.2338271321174604e-11 
1.4240022739283629e-9 
-0.00017703508144007872 
0.015913480529845297 
0.004349353153625863 
-9.53629647042262e-10 
-1.0936816231935097e-6 
0.003657575551479513 
-9.177520369724713e-8 
5.135442214041219e-10 
4.394384339091744e-5 
-0.002433191392977688 
1.4125442390607266e-12 
2.3297953379360883e-6 
-0.00025496785116109206 
-1.078560250905466e-6 
-4.071509067152228e-14 
1.6912975000865263e-8 
2.3830860498625138e-5 
-0.00037692153363895605 
0.46484067304336313 
1.904857366255079e-9 
-3.7465324929912675e-9 
0.0002009696350262472 
0.01246097843365015 
-8.557858072111501e-11 
-4.882688489421021e-6 
0.0003254961754735856 
1.982348351063243e-6 
2.5016746491002326e-15 
8.576086934007608e-8 
5.4713844374212425e-5 
-9.213338788383775e-10 
1.3218236275609636e-9 
-1.860435924068825e-5 
0.0010748506245032733 
-1.5242959008091377e-12 
4.080275850344884e-7 
-0.00015318803728817977 
0.001621719025523952 
0.07679772141021994 
2.791444642530764e-13 
4.785597091297539e-8 
0.00010573232761881445 
0.0010667105314649762 
0.0006990065156683133 
2.625148249728841e-9 
-6.543578112348387e-5 
0.34302208500251624 
-0.0019353206192018971 
2.4833715962217494e-11 
-6.937394791987989e-7 
-7.886904839478617e-15 
1.1404514605528809e-7 
8.422767754818762e-5 
-4.954775524246441e-6 
-1.1334379398522788e-14 
-7.470299117384275e-9 
0.00017265334123106236 
-7.289617612585416e-5 
0.024205284239609725 
1.8930510240807285e-6 
-3.2396245426205355e-9 
-0.00011936205871596406 
-1.3481365836335316e-7 
4.544922127070521e-11 
6.1024275951986365e-6 
-0.0016228707429722666 
-8.002520209092494e-13 
1.2862987659184809e-9 
-3.870959996919132e-5 
0.0004392071272244067 
0.0034837438904118984 
-1.3376465397115872e-10 
-2.9214624344123847e-9 
-0.00016080103872449247 
5.351218631232981e-7 
-0.00224295883300504 
-6.454747890126025e-6 
3.5938374549754593e-11 
-4.147202823934571e-6 
8.129124248765774e-12 
4.686435731215588e-6 
0.0006237901751565756 
-5.150708103876248e-7 
-3.121867034652669e-6 
3.117362948531352e-5 
-1.135542295522216e-9 
-1.1933342274118001e-12 
-3.9898193684741604e-7 
-0.0007686589176190214 
0.0060406975761297865 
0.012786093781493446 
0.0003059526823805353 
-2.1285946183173628e-10 
-8.700646812215787e-6 
6.515266343041273e-5 
0.30452795727446164 
-1.1408815285817296e-12 
1.5399813992550732e-7 
7.527350498285055e-5 
-2.0157992349575474e-9 
-8.457982591477336e-11 
1.9282461547490214e-6 
-0.0014837764231426709 
1.5074871331019495e-6 
-0.00018888479356771786 
-0.006394906663397651 
-8.075678913220434e-8 
2.2651265149588256e-10 
-3.7520603461955286e-5 
1.3753266519771425e-5 
-6.920285561406103e-13 
-7.699263491776815e-7 
-0.0004916482757588187 
-2.5625442352192873e-5 
-2.3107113510666866e-13 
1.9300890230354547e-8 
-0.00019646826045549605 
0.9186935487786582 
-3.14257293578116e-11 
1.4085456937628247e-7 
-0.0013754943071463144 
0.053210724256499996 
0.0002559699521852145 
-8.620981913821002e-12 
8.591138220158625e-10 
9.384475660534786e-5 
-1.8412212815279667e-7 
-4.753356932793528e-15 
1.1194207704804607e-8 
7.005326416767752e-5 
-7.199677513398378e-7 
-4.0722417435674393e-13 
-5.574015035096644e-7 
-0.00018206424654629126 
-2.3193966511769715e-14 
-1.2616771012547423e-8 
-1.6230495308749882e-5 
-0.00015492215240053289 
-7.923925726700854e-5 
-2.8311064295893474e-13 
2.524544376868109e-7 
-0.0006889161204660993 
2.090723100312735e-10 
5.303279357375979e-11 
1.24525728613616e-5 
0.000205632719079833 
0.0018512732582942355 
1.94684651504249e-12 
1.3772596888016389e-8 
0.0002812136371413774 
0.009831705303610997 
1.176782960303341e-8 
6.427319818625223e-5 
0.27672111934623667 
1.7927636311584284e-9 
1.584644149362464e-8 
-0.0003991397936663559 
0.04114701470231243 
-1.370913521740273e-7 
2.4805334522726213e-10 
-6.583776496714812e-5 
-3.2363469134205215e-14 
1.4678456164847771e-8 
-7.622193307304781e-5 
-4.384875538834445e-7 
-7.446871314437878e-6 
-1.7145850408868347e-15 
1.3509841672948185e-9 
4.4661628879607974e-5 
2.4363181968865636e-10 
3.1357429987148186e-8 
0.00018118749497428484 
0.08573537546017262 
0.07700245026700007 
-9.805571152248133e-11 
2.483924042768462e-6 
-0.0002449934438166431 
-7.771937523855306e-7 
8.39449320338261e-12 
-1.0149978644806007e-5 
-0.003147940558678209 
-5.359810812647544e-13 
-1.4064403187812557e-7 
-0.0010631778571205512 
0.07128187609153158 
3.273158452672693e-5 
3.7839604653576253e-14 
-4.127617928957877e-9 
2.078185879898567e-5 
2.0273380171442016e-14 
1.2687696866722683e-7 
-0.00014083069020482062 
-8.957742570145814e-6 
6.388399184404549e-5 
0.1549187393248446 
-3.702219030846265e-12 
-7.905079009430497e-7 
-0.0011251359312106186 
0.00024402157098275159 
-6.24232631736282e-14 
2.6491722278506922e-8 
0.00023235910353755588 
-5.950231158271201e-11 
5.916894906629503e-10 
6.561840881562576e-5 
0.002975848218876404 
0.0004750037432462065 
-2.4597901951863063e-11 
2.1727329649323013e-6 
-0.00128339492245033 
0.005437436885920163 
-2.9186366834654568e-8 
-2.218921890011902e-5 
0.06979396692679349 
9.070925953213778e-12 
6.93747679085977e-8 
0.00013947245925421844 
0.5027423505843828 
2.620895311119111e-10 
9.290835056214938e-8 
0.0009525051500375373 
-2.4010944210901783e-6 
-1.3372629492107483e-13 
1.1874820768598772e-6 
0.0005911386973337447 
0.0009130169687796719 
-1.4908518722056884e-10 
3.1431265038607765e-10 
-1.2298332575490754e-5 
-3.71211850389785e-14 
1.4576276457879258e-8 
0.00026579821690375264 
-9.532017988227185e-5 
-0.005262302921191154 
-1.383237794018688e-8 
1.8650113590959754e-9 
0.00013118068670557763 
5.155595306389065e-13 
-1.4690629158716165e-6 
0.0010592690347587383 
5.022176269608559e-7 
9.435335478082094e-6 
0.0005704550501012665 
-1.9045356244697134e-5 
1.9524564982272315e-13 
5.812180295909078e-7 
-0.00021031310730443593 
3.3133304536069323e-7 
0.00044699963440246834 
-1.6193168569044028e-10 
-4.524419304881338e-6 
-0.004864998561101043 
-8.447870436252602e-8 
2.8312815925839672e-11 
1.0349939509084857e-5 
-0.00048469516258912624 
0.003578966023243189 
-4.700472425775664e-11 
-1.4658521155464338e-11 
4.393290990332507e-7 
-0.0014750360745814112 
0.03949545329689062 
-6.225925252626603e-9 
9.877792207050513e-6 
-1.0482604292815759e-5 
6.032698569989865e-14 
3.5859986889492445e-7 
-8.89545294589344e-5 
-8.604034018469835e-14 
8.911354135941821e-8 
-0.0003345035470808892 
5.877679927312951e-8 
3.3073960657963327e-16 
1.2722588518499925e-8 
1.81550182691906e-5 
2.4605490157388455e-5 
-3.827167427670382e-7 
-0.0002364858423228664 
0.06959407261621842 
3.1864647992758315e-10 
-5.056589437873096e-10 
0.00013807759648468233 
3.072637284254126e-5 
-1.1480750965639065e-10 
1.4357591759414866e-5 
8.350985841055952e-5 
3.086051643739756e-10 
2.3100667295432783e-5 
-0.006780144668242108 
-0.008206766313774193 
2.9549767702959507e-8 
-3.48644999558175e-10 
-7.298711350273978e-5 
0.00011372949880570516 
1.7102838337150673e-13 
8.855228895123124e-10 
-3.07287249496394e-5 
1.4328783777161197e-9 
9.47116627948801e-7 
4.8213101266858444e-12 
7.068143082739117e-9 
-3.2705209571222463e-6 
0.004366265568728155 
0.058030746554044374 
2.7051238194557654e-13 
5.946966557625903e-7 
3.275884098809121e-5 
-1.2643790044704807e-5 
-0.0027669871107222294 
-1.2613817455156557e-6 
-2.817751751943104e-11 
1.861725678572506e-5 
-1.2718788304737486e-9 
7.822314553105095e-11 
2.9344364893538195e-5 
-0.000879616596392971 
-7.3646304216507144e-9 
2.570541842908658e-9 
8.885225111017434e-5 
-0.0134289267089757 
0.007486625793027186 
-3.935634553441413e-10 
1.1524451310801271e-8 
0.00012129365853135088 
0.5446237510749444 
0.0012080323830891064 
-6.749864074670802e-12 
5.976369171066633e-8 
-3.916978213972781e-14 
-2.1796933233524226e-8 
-0.00017291312281257696 
-0.00010191293150601857 
-2.9631054408060466e-7 
-4.870438514155667e-12 
1.0422952779880365e-6 
1.545166297460793e-10 
-5.844621159908584e-10 
-4.502421048961521e-11 
-1.3140323233888148e-5 
-0.0012971180963600594 
-0.0008400405818694155 
2.976850259654168e-13 
-2.335606161432705e-9 
-7.602968616503945e-5 
-1.0709362259237811e-14 
-3.4005738275098146e-8 
-2.4242370520988134e-5 
-1.6446254069146845e-7 
6.219945945715945e-17 
-5.959764575969832e-9 
-1.420029807683087e-5 
3.367086397070605e-7 
-0.007778590942502581 
-2.782443535384216e-6 
1.4198869344880466e-10 
9.532135606973272e-6 
0.06643948146707879 
-9.230224081492073e-9 
0.00023265524101583892 
-5.271397202950153e-6 
0.000752302721859717 
-0.012409414327778149 
-3.624657773610246e-8 
2.707633232680137e-10 
5.195905114957588e-5 
-0.0021596824853693007 
-9.597423060256384e-9 
2.770528808395319e-10 
6.22533613014984e-5 
1.0547656983181793e-8 
0.2871955109529363 
-3.3723644293497904e-12 
4.458339478237599e-7 
0.0014898880519055788 
-7.0758674260360174e-12 
-1.2789990178656164e-5 
0.00095482819985587 
4.573553375614473e-8 
-1.4200981140002847e-5 
0.7021355153729184 
-5.420715639274213e-11 
1.2237390132378656e-8 
-0.002007741463324504 
-4.792392862322064e-10 
-4.168651748463775e-11 
-4.809032934327854e-5 
0.0004985430990397903 
-5.953602273745986e-11 
-1.0449320332705283e-7 
0.0003373515198768164 
0.024489056379176803 
2.569924990878505e-7 
-0.00018301103613197454 
-9.583917329708268e-13 
9.184288598805701e-8 
-0.0007640075254717334 
0.007967000705595995 
-0.0033766831840282767 
2.627031133024096e-6 
-2.4575878482867815e-12 
-4.364406701308761e-6 
0.00334457664132178 
1.141868821608335e-13 
-1.028064736351214e-8 
-0.00013623782509825894 
0.006996120130746098 
-1.292758888539494e-10 
1.4316659934307518e-6 
0.003430757347660877 
-9.236064267371361e-13 
-5.065377643479002e-7 
0.0005136293637213888 
4.430983871758343e-5 
1.578758272697445e-6 
-3.759667211278602e-13 
-3.3750590218279976e-6 
0.0007006382212502809 
0.00023504291786944083 
-2.2193871554471522e-12 
-1.0701817692499797e-6 
-0.000996631990022009 
0.0010048120094375789 
-1.3087435022902086e-12 
3.8201513523388624e-7 
-9.831011061117235e-5 
-6.776997141155979e-7 
-0.0013910114516631625 
1.938158668137253e-13 
6.14052696984228e-10 
-7.765932767551404e-5 
0.00012700684179274636 
-8.930288660783512e-8 
-2.828997395999829e-15 
-1.1824439790466515e-8 
1.4832481016385717e-5 
0.47473955196247475 
-2.7010877168261582e-11 
5.263627930679083e-9 
-0.00029136192733365053 
0.005414404278836551 
-9.402364124248256e-10 
-5.345010338994564e-7 
0.0006150361186019871 
8.907465542854814e-7 
-3.897344638363744e-7 
-5.257982049571087e-12 
-6.990108006242753e-6 
0.00019607865028846213 
4.7005531973338374e-5 
-9.12540482601077e-6 
2.2078163181804723e-14 
2.4266428484219634e-7 
0.00020566531977365805 
-2.0161492073220202e-13 
-7.152399744739959e-8 
-0.0004787303331916458 
0.6457647233259596 
-3.6497552877640737e-9 
4.600387070944813e-10 
4.2008678948520535e-5 
-5.453084814229993e-5 
0.32339128647969795 
0.12354135751191461 
0.24894781192176255 
-8.898246052291515e-12 
9.794417866228268e-12 
3.351441173060677e-11 
8.121482951103431e-7 
-6.301263857585624e-7 
-9.005069258952244e-7 
0.0011995507231577112 
-0.00014753499102862678 
-0.0010015487149627662 
0.0002320862912724678 
0.0006549887915708225 
0.0017359072643321873 
1.7390059482815054e-10 
9.996106493136854e-11 
-4.6947498652956026e-11 
1.1563495994442818e-5 
3.0451060311005257e-6 
-7.291685910963559e-6 
0.0006154923630439526 
0.00014427711525870495 
-0.0038840138568677464 
0.4746363869837253 
0.18785169852432868 
-0.0012988004054739419 
0.001722889612196267 
-1.471812198476279e-11 
1.5666870862418085e-11 
6.105028755637457e-7 
-3.952986048142999e-7 
-0.006865046701185252 
0.002261170000294555 
0.001896647412263085 
0.00709747834795342 
6.855439044241159e-11 
2.8938570163059596e-10 
1.5552056574805873e-6 
4.256085583715106e-6 
1.8576693881349272e-6 
-4.9172441941506475e-6 
3.977071472363055e-7 
0.24618873931045826 
0.20477257327499512 
0.08611179320450557 
0.17512239322601797 
0.4602106470639367 
1.6732459963539585e-6 
-2.9721767952896367e-7 
1.9775636336208837e-6 
5.587794017185783e-13 
4.695327694899871e-13 
-2.0645429214739335e-12 
3.47816620891578e-7 
1.2527716664228766e-6 
-2.5270525036328675e-6 
0.0003224347186778724 
-0.0004095610981494026 
2.7992538304654943e-5 
6.246275314579502e-7 
-1.0429325247667574e-7 
-3.1305189499632695e-16 
-1.9431914842430596e-17 
-1.0387025841315556e-8 
2.8670015297427715e-10 
-6.022859819268425e-5 
2.6378191814534095e-6 
1.5392327963958547e-7 
-7.691755037433434e-8 
1.0876231823925391e-14 
-4.121421312779942e-15 
4.098553105310261e-8 
-2.157096314473978e-8 
2.174896196626105e-5 
-1.40702230612699e-5 
0.005301925779654867 
0.0021422973050423456 
-0.002905844749860587 
-5.211461878354976e-7 
2.8178533084562093e-7 
9.326534651033857e-8 
-4.1025338845074134e-10 
-1.0791912099893523e-10 
2.449235695821019e-10 
-3.059346877850859e-5 
1.8280440351184805e-5 
1.4594874644294319e-5 
-3.0122193484488585e-14 
1.8242631152346323e-13 
-1.5049020858302636e-14 
4.6825568236989023e-7 
7.024659659585525e-8 
-2.747991366416629e-7 
-0.00036486210790261754 
0.0003570647581975224 
0.0001418210164203561 
2.1126199660250487e-7 
2.2403213900325894e-7 
-1.3061171622978763e-7 
2.6697102998412245e-15 
-9.027482035858718e-16 
7.962570920485157e-15 
-1.1783823479701846e-8 
-1.5528432469515338e-9 
1.020977642181554e-8 
-0.0002458196006261272 
0.00011834176969779023 
3.67827308918226e-5 
4.341723990675343e-5 
3.577767336608102e-5 
9.210966632487732e-5 
-1.4659239898329748e-8 
2.2926118540636725e-13 
-6.211626652703854e-7 
0.0006674443620468596 
8.687504944944973e-15 
-1.7735931322719845e-9 
-9.409716744080935e-6 
0.00012073795312294696 
-2.488876715681255e-15 
-9.426324223693107e-15 
1.1603641414024014e-8 
-3.846075127922233e-9 
-1.1258016181576627e-5 
1.8211857679097044e-5 
-5.7027040946610694e-5 
2.321936672054408e-5 
-0.00030117735513169317 
0.008942554198792965 
0.0007011163463916155 
1.4140204157315507e-5 
3.7507879135051707e-6 
6.153603099912504e-16 
1.0063467465623941e-15 
-9.679473592579165e-9 
2.6100612626988953e-8 
-8.947071797001276e-5 
1.0160502221864848e-5 
-2.877683352714411e-7 
4.846801621045259e-7 
-3.252179729900394e-14 
2.1474005378987573e-14 
-8.546259475537865e-8 
4.2134440930565814e-8 
-6.224737604495501e-5 
5.5347629570641134e-5 
-0.0008433311755753677 
0.005530540925797859 
1.8630336544309235e-6 
-2.7968817860511154e-7 
2.7595694747287734e-11 
2.0255067264048674e-11 
-2.7740617396302874e-5 
1.2926652850311461e-5 
-0.00030238709522791723 
8.296623114110644e-5 
0.0005693858284140388 
-7.431537138692678e-14 
7.022685620208276e-14 
1.706882888488129e-13 
-3.0064945069756954e-9 
4.127247185370896e-8 
-3.458109534646843e-8 
-0.00010572611644572483 
0.000331684112935428 
3.8464123251398186e-5 
-1.2183905704687847e-5 
8.862523447857676e-6 
-1.152831928106683e-6 
-6.375172980601568e-6 
4.9381440086019724e-12 
-1.7740433902895565e-12 
6.0775647396207804e-6 
-1.5528491947135068e-6 
-0.0006689581994311598 
-0.00012854700383409636 
1.1891965019412957e-11 
3.211827087054823e-11 
-6.25040992834395e-12 
2.028248236285863e-9 
-7.91917814665261e-10 
-1.4078968002966136e-9 
0.00018296880220686283 
-0.00012530648911475607 
-0.0001117836328927996 
-0.00023600597266854305 
-0.0009841105488447338 
-5.723986524060106e-5 
1.0076873568156536e-14 
-5.410885948504215e-14 
7.770751972788325e-14 
1.3552860174329706e-8 
-2.4186851057979705e-7 
1.8026013646201456e-7 
0.00020245084292332255 
1.9375972510230593e-5 
-4.3851604378004095e-5 
2.2317162849875817e-5 
-7.184323738376989e-6 
1.9616705170774604e-5 
-7.51523443549781e-5 
0.00014068699205117507 
-7.257977267909153e-15 
3.832466472544935e-14 
2.3524314273238204e-8 
-9.857238127833666e-8 
5.0049198612646555e-6 
-0.0002389782323324034 
0.0027087327617000877 
0.022536618416476813 
0.009387164783481167 