# vtk DataFile Version 3.0 
Unstructured Grid 
ASCII 
DATASET UNSTRUCTURED_GRID
POINTS 2173 float 
-0.5 -0.5 0  
0.5 -0.5 0  
0.5 0.5 0  
-0.5 0.5 0  
-0.475 -0.5 0  
-0.45 -0.5 0  
-0.425 -0.5 0  
-0.4 -0.5 0  
-0.375 -0.5 0  
-0.35 -0.5 0  
-0.325 -0.5 0  
-0.3 -0.5 0  
-0.275 -0.5 0  
-0.25 -0.5 0  
-0.225 -0.5 0  
-0.2 -0.5 0  
-0.175 -0.5 0  
-0.15 -0.5 0  
-0.125 -0.5 0  
-0.1 -0.5 0  
-0.075 -0.5 0  
-0.05 -0.5 0  
-0.025 -0.5 0  
-1.3761214e-12 -0.5 0  
0.025 -0.5 0  
0.05 -0.5 0  
0.075 -0.5 0  
0.1 -0.5 0  
0.125 -0.5 0  
0.15 -0.5 0  
0.175 -0.5 0  
0.2 -0.5 0  
0.225 -0.5 0  
0.25 -0.5 0  
0.275 -0.5 0  
0.3 -0.5 0  
0.325 -0.5 0  
0.35 -0.5 0  
0.375 -0.5 0  
0.4 -0.5 0  
0.425 -0.5 0  
0.45 -0.5 0  
0.475 -0.5 0  
0.5 -0.475 0  
0.5 -0.45 0  
0.5 -0.425 0  
0.5 -0.4 0  
0.5 -0.375 0  
0.5 -0.35 0  
0.5 -0.325 0  
0.5 -0.3 0  
0.5 -0.275 0  
0.5 -0.25 0  
0.5 -0.225 0  
0.5 -0.2 0  
0.5 -0.175 0  
0.5 -0.15 0  
0.5 -0.125 0  
0.5 -0.1 0  
0.5 -0.075 0  
0.5 -0.05 0  
0.5 -0.025 0  
0.5 -1.3761214e-12 0  
0.5 0.025 0  
0.5 0.05 0  
0.5 0.075 0  
0.5 0.1 0  
0.5 0.125 0  
0.5 0.15 0  
0.5 0.175 0  
0.5 0.2 0  
0.5 0.225 0  
0.5 0.25 0  
0.5 0.275 0  
0.5 0.3 0  
0.5 0.325 0  
0.5 0.35 0  
0.5 0.375 0  
0.5 0.4 0  
0.5 0.425 0  
0.5 0.45 0  
0.5 0.475 0  
0.475 0.5 0  
0.45 0.5 0  
0.425 0.5 0  
0.4 0.5 0  
0.375 0.5 0  
0.35 0.5 0  
0.325 0.5 0  
0.3 0.5 0  
0.275 0.5 0  
0.25 0.5 0  
0.225 0.5 0  
0.2 0.5 0  
0.175 0.5 0  
0.15 0.5 0  
0.125 0.5 0  
0.1 0.5 0  
0.075 0.5 0  
0.05 0.5 0  
0.025 0.5 0  
1.3761214e-12 0.5 0  
-0.025 0.5 0  
-0.05 0.5 0  
-0.075 0.5 0  
-0.1 0.5 0  
-0.125 0.5 0  
-0.15 0.5 0  
-0.175 0.5 0  
-0.2 0.5 0  
-0.225 0.5 0  
-0.25 0.5 0  
-0.275 0.5 0  
-0.3 0.5 0  
-0.325 0.5 0  
-0.35 0.5 0  
-0.375 0.5 0  
-0.4 0.5 0  
-0.425 0.5 0  
-0.45 0.5 0  
-0.475 0.5 0  
-0.5 0.475 0  
-0.5 0.45 0  
-0.5 0.425 0  
-0.5 0.4 0  
-0.5 0.375 0  
-0.5 0.35 0  
-0.5 0.325 0  
-0.5 0.3 0  
-0.5 0.275 0  
-0.5 0.25 0  
-0.5 0.225 0  
-0.5 0.2 0  
-0.5 0.175 0  
-0.5 0.15 0  
-0.5 0.125 0  
-0.5 0.1 0  
-0.5 0.075 0  
-0.5 0.05 0  
-0.5 0.025 0  
-0.5 1.3761214e-12 0  
-0.5 -0.025 0  
-0.5 -0.05 0  
-0.5 -0.075 0  
-0.5 -0.1 0  
-0.5 -0.125 0  
-0.5 -0.15 0  
-0.5 -0.175 0  
-0.5 -0.2 0  
-0.5 -0.225 0  
-0.5 -0.25 0  
-0.5 -0.275 0  
-0.5 -0.3 0  
-0.5 -0.325 0  
-0.5 -0.35 0  
-0.5 -0.375 0  
-0.5 -0.4 0  
-0.5 -0.425 0  
-0.5 -0.45 0  
-0.5 -0.475 0  
-0.002115384 -0.00023065208 0  
-0.20714286 -0.20714286 0  
0.20714286 -0.20714286 0  
0.20714286 0.20714286 0  
-0.20714286 0.20714286 0  
-0.28155318 -0.0017231192 0  
0.0017231192 -0.28155318 0  
0.28155318 0.0017231192 0  
-0.0017231192 0.28155318 0  
0.3319978 -0.33098683 0  
0.33098683 0.3319978 0  
-0.3319978 0.33098683 0  
-0.33098683 -0.3319978 0  
-0.14015679 -0.06698606 0  
0.06698606 -0.14015679 0  
0.14015679 0.06698606 0  
-0.06698606 0.14015679 0  
-0.1387125 -0.34573975 0  
0.34573975 -0.1387125 0  
0.1387125 0.34573975 0  
-0.34573975 0.1387125 0  
0.14046866 -0.34602854 0  
0.34602854 0.14046866 0  
-0.14046866 0.34602854 0  
-0.34602854 -0.14046866 0  
-0.05869875 -0.16617337 0  
0.18217777 -0.061504476 0  
0.062312964 0.18362015 0  
-0.18362015 0.062312964 0  
-0.034321424 -0.38563195 0  
0.38563195 -0.034321424 0  
0.034321424 0.38563195 0  
-0.38563195 0.034321424 0  
0.39586002 -0.2428538 0  
0.2428538 0.39586002 0  
-0.39586002 0.2428538 0  
-0.2428538 -0.39586002 0  
0.23688246 -0.38952246 0  
0.38952246 0.23688246 0  
-0.23688246 0.38952246 0  
-0.38952246 -0.23688246 0  
-0.24287231 -0.09948847 0  
0.09948847 -0.24287231 0  
0.24287231 0.09948847 0  
-0.09948847 0.24287231 0  
-0.11560815 -0.24300627 0  
0.24300627 -0.11560815 0  
0.11560815 0.24300627 0  
-0.24300627 0.11560815 0  
-0.40192315 -0.4008276 0  
0.4008276 -0.40192315 0  
0.40192315 0.4008276 0  
-0.4008276 0.40192315 0  
0.06409326 -0.40289903 0  
0.40289903 0.06409326 0  
-0.06409326 0.40289903 0  
-0.40289903 -0.06409326 0  
0.2962961 -0.23982804 0  
0.23982804 0.2962961 0  
-0.2962961 0.23982804 0  
-0.23982804 -0.2962961 0  
-0.28087237 -0.21196799 0  
0.21196799 -0.28087237 0  
0.28087237 0.21196799 0  
-0.21196799 0.28087237 0  
-0.0901279 0.007867504 0  
-0.05002927 -0.07494272 0  
0.0873353 -0.009871756 0  
0.0071518295 0.09216282 0  
-0.14120433 -0.1484696 0  
-0.14581114 0.13960092 0  
0.1458264 -0.14505939 0  
0.13960092 0.14581114 0  
0.41838804 -0.3182741 0  
0.3182741 0.41838804 0  
-0.41838804 0.3182741 0  
-0.3182741 -0.41838804 0  
0.32118136 -0.41712493 0  
0.41712493 0.32118136 0  
-0.32118136 0.41712493 0  
-0.41712493 -0.32118136 0  
-0.19707234 -0.014843048 0  
0.018050108 -0.20183705 0  
0.19707234 0.014843048 0  
-0.014843048 0.19707234 0  
-0.10938372 -0.41847488 0  
0.41847488 -0.10938372 0  
0.10938372 0.41847488 0  
-0.41847488 0.10938372 0  
0.15773043 -0.4267032 0  
0.4267032 0.15773043 0  
-0.15773043 0.4267032 0  
-0.4267032 -0.15773043 0  
-0.3204562 -0.07174808 0  
0.07174808 -0.3204562 0  
0.3204562 0.07174808 0  
-0.07174808 0.3204562 0  
0.02801032 -0.07269879 0  
-0.31817523 0.069836795 0  
-0.069836795 -0.31817523 0  
0.31817523 -0.069836795 0  
0.069836795 0.31817523 0  
0.43106207 -0.17757268 0  
0.17757268 0.43106207 0  
-0.43106207 0.17757268 0  
-0.17757268 -0.43106207 0  
0.0703783 0.071201205 0  
-0.051593844 0.064346604 0  
0.099701226 -0.08333426 0  
0.2863281 -0.17248559 0  
0.17248559 0.2863281 0  
-0.2863281 0.17248559 0  
-0.17248559 -0.2863281 0  
-0.2341888 0.04979648 0  
-0.049194112 -0.231281 0  
0.23358595 -0.04946041 0  
0.04979648 0.2341888 0  
-0.009939441 -0.13691185 0  
-0.26560438 -0.17864102 0  
0.17864102 -0.26560438 0  
0.26560438 0.17864102 0  
-0.17864102 0.26560438 0  
0.013302229 -0.43510666 0  
0.43510666 0.013302229 0  
-0.013302229 0.43510666 0  
-0.43510666 -0.013302229 0  
0.09432827 0.114700764 0  
-0.11539384 0.093188405 0  
-0.3413634 -0.005100272 0  
0.005100272 -0.3413634 0  
0.3413634 0.005100272 0  
-0.005100272 0.3413634 0  
-0.19817708 -0.3508856 0  
0.3508856 -0.19817708 0  
0.19817708 0.3508856 0  
-0.3508856 0.19817708 0  
-0.34100306 -0.27216324 0  
0.27216324 -0.34100306 0  
0.34100306 0.27216324 0  
-0.27216324 0.34100306 0  
-0.20269383 -0.14403741 0  
0.14393912 -0.2028372 0  
0.2026342 0.14393856 0  
-0.14393856 0.2026342 0  
-0.1030633 -0.10524017 0  
-0.4394695 -0.104853734 0  
0.104853734 -0.4394695 0  
0.4394695 0.104853734 0  
-0.104853734 0.4394695 0  
-0.44156647 -0.44156647 0  
0.44156647 -0.44156647 0  
0.44156647 0.44156647 0  
-0.44156647 0.44156647 0  
-0.2683254 -0.44465622 0  
0.44465622 -0.2683254 0  
0.2683254 0.44465622 0  
-0.44465622 0.2683254 0  
0.2654342 -0.4435478 0  
0.4435478 0.2654342 0  
-0.2654342 0.4435478 0  
-0.4435478 -0.2654342 0  
-0.27373606 -0.34534052 0  
0.34534052 -0.27373606 0  
0.27373606 0.34534052 0  
-0.34534052 0.27373606 0  
-0.05307205 -0.4481981 0  
0.4481981 -0.05307205 0  
0.05307205 0.4481981 0  
-0.4481981 0.05307205 0  
-0.35614902 -0.19390328 0  
0.19390328 -0.35614902 0  
0.35614902 0.19390328 0  
-0.19390328 0.35614902 0  
-0.14022674 -0.012452113 0  
0.14171903 0.011271359 0  
-0.01125192 0.14089845 0  
-0.19556868 -0.06932378 0  
0.070511825 -0.19668652 0  
0.19556868 0.06932378 0  
-0.06932378 0.19556868 0  
-0.24951252 -0.039742906 0  
0.04037078 -0.2503529 0  
0.24951252 0.039742906 0  
-0.039742906 0.24951252 0  
0.44100407 -0.36164257 0  
0.36164257 0.44100407 0  
-0.44100407 0.36164257 0  
-0.36164257 -0.44100407 0  
-0.4451273 -0.36589316 0  
0.36589316 -0.4451273 0  
0.4451273 0.36589316 0  
-0.36589316 0.4451273 0  
0.1121834 -0.30242515 0  
0.30242515 0.1121834 0  
-0.1121834 0.30242515 0  
-0.30242515 -0.1121834 0  
-0.115146436 -0.19087775 0  
0.19190264 -0.11309679 0  
0.11520548 0.19263776 0  
-0.19263776 0.11520548 0  
-0.08287991 -0.37025127 0  
0.37025127 -0.08287991 0  
0.08287991 0.37025127 0  
-0.37025127 0.08287991 0  
0.23791528 -0.24381089 0  
0.24381089 0.23791528 0  
-0.23791528 0.24381089 0  
-0.24381089 -0.23791528 0  
-0.44626984 -0.21174923 0  
0.21174923 -0.44626984 0  
0.44626984 0.21174923 0  
-0.21174923 0.44626984 0  
0.35174853 -0.37705234 0  
0.37705234 0.35174853 0  
-0.35174853 0.37705234 0  
-0.37705234 -0.35174853 0  
-0.048605647 -0.023262763 0  
-0.1551113 -0.21381997 0  
0.21381997 -0.1551113 0  
0.1551113 0.21381997 0  
-0.21381997 0.1551113 0  
-0.29403278 -0.30027482 0  
0.30027482 -0.29403278 0  
0.29403278 0.30027482 0  
-0.30027482 0.29403278 0  
0.12173745 -0.390654 0  
0.390654 0.12173745 0  
-0.12173745 0.390654 0  
-0.390654 -0.12173745 0  
-0.12236246 -0.2979882 0  
0.2979882 -0.12236246 0  
0.12236246 0.2979882 0  
-0.2979882 0.12236246 0  
-0.0945969 -0.046371013 0  
0.035276897 -0.027358124 0  
-0.0076714605 0.051946 0  
-0.30809116 -0.17165439 0  
0.17165439 -0.30809116 0  
0.30809116 0.17165439 0  
-0.17165439 0.30809116 0  
-0.16592422 -0.10879113 0  
0.10700909 -0.1687818 0  
0.16864619 0.10664837 0  
-0.10664837 0.16864619 0  
-0.16784625 -0.38069874 0  
0.38069874 -0.16784625 0  
0.16784625 0.38069874 0  
-0.38069874 0.16784625 0  
-0.4563872 -0.05993889 0  
0.05993889 -0.4563872 0  
0.4563872 0.05993889 0  
-0.05993889 0.4563872 0  
0.31103167 -0.37412483 0  
0.37412483 0.31103167 0  
-0.31103167 0.37412483 0  
-0.37412483 -0.31103167 0  
-0.3909646 -0.012754724 0  
0.012754724 -0.3909646 0  
0.3909646 0.012754724 0  
-0.012754724 0.3909646 0  
0.44915667 -0.21679194 0  
0.21679194 0.44915667 0  
-0.44915667 0.21679194 0  
-0.21679194 -0.44915667 0  
0.045831423 0.12033131 0  
-0.12662303 0.045442794 0  
-0.3107799 -0.37355793 0  
0.37355793 -0.3107799 0  
0.3107799 0.37355793 0  
-0.37355793 0.3107799 0  
0.04152367 0.021693805 0  
-0.08040017 -0.2675595 0  
0.26794365 -0.08044455 0  
0.080500565 0.2680441 0  
-0.2680441 0.080500565 0  
-0.13753757 -0.45578164 0  
0.45578164 -0.13753757 0  
0.13753757 0.45578164 0  
-0.45578164 0.13753757 0  
-0.05507968 -0.12135967 0  
0.14172421 -0.09428923 0  
0.2571752 -0.19664502 0  
[...]
POINT_DATA 2173 
SCALARS T float 
LOOKUP_TABLE default 
1.1769109439216723e-34 
6.08041698368961e-89 
6.08041698368961e-89 
1.1769109439216723e-34 
2.291161145178212e-33 
3.263251751111218e-32 
3.4003788086815493e-31 
2.592317706125824e-30 
1.445879369721203e-29 
5.900092299961243e-29 
1.7614424563793304e-28 
3.8473411749351687e-28 
6.148035066147068e-28 
7.187781739060989e-28 
6.148035066147068e-28 
3.847342608181848e-28 
1.761441472096994e-28 
5.900092299961243e-29 
1.445879369721203e-29 
2.5923191546966658e-30 
3.4003832422739015e-31 
3.263248104145322e-32 
2.291159704856915e-33 
1.1769109441241274e-34 
4.422978317077314e-36 
1.2160991633431456e-37 
2.446279117280108e-39 
3.600196948871701e-41 
3.876408182568461e-43 
3.053620673523013e-45 
1.759887706728686e-47 
7.4205559418487705e-50 
2.2891401147341544e-52 
5.166420632837861e-55 
8.53080584608608e-58 
1.0305599562741712e-60 
9.10842107880752e-64 
5.889687962408773e-67 
2.7862775947812176e-70 
9.64360445067111e-74 
2.441953020131258e-77 
4.524000663168378e-81 
6.131779890614817e-85 
2.694114655382223e-86 
8.733370587014476e-84 
2.071226395405903e-81 
3.593833698497397e-79 
4.562187213172341e-77 
4.237117661037836e-75 
2.8790622105530276e-73 
1.431239294557909e-71 
5.205448750043825e-70 
1.3851193699226017e-68 
2.6964932287615242e-67 
3.8405494019952036e-66 
4.001948474986306e-65 
3.05092776039687e-64 
1.7016712538154534e-63 
6.94387989980572e-63 
2.073059861429697e-62 
4.52797908291667e-62 
7.23569021204086e-62 
8.459378991221227e-62 
7.23569021204086e-62 
4.52797908291667e-62 
2.073059861429697e-62 
6.94387989980572e-63 
1.7016712538154534e-63 
3.05092776039687e-64 
4.001948474986306e-65 
3.8405494019952036e-66 
2.6964932287615242e-67 
1.3851193699226017e-68 
5.205448750043825e-70 
1.431239294557909e-71 
2.8790622105530276e-73 
4.237117661037836e-75 
4.562187213172341e-77 
3.593833698497397e-79 
2.071226395405903e-81 
8.733370587014476e-84 
2.694114655382223e-86 
6.131779890614817e-85 
4.524000663168378e-81 
2.441953020131258e-77 
9.64360445067111e-74 
2.7862775947812176e-70 
5.889687962408773e-67 
9.10842107880752e-64 
1.0305599562741712e-60 
8.53080584608608e-58 
5.166420632837861e-55 
2.2891401147341544e-52 
7.4205559418487705e-50 
1.759887706728686e-47 
3.053620673523013e-45 
3.876408182568461e-43 
3.600196948871701e-41 
2.446279117280108e-39 
1.2160991633431456e-37 
4.422978317077314e-36 
1.176910943719234e-34 
2.291159704856915e-33 
3.263248104145322e-32 
3.4003832422739015e-31 
2.5923191546966658e-30 
1.445879369721203e-29 
5.900092299961243e-29 
1.761441472096994e-28 
3.847342608181848e-28 
6.148035066147068e-28 
7.187781739060989e-28 
6.148035066147068e-28 
3.8473411749351687e-28 
1.7614424563793304e-28 
5.900092299961243e-29 
1.445879369721203e-29 
2.592317706125824e-30 
3.4003788086815493e-31 
3.263251751111218e-32 
2.291161145178212e-33 
5.214663781455158e-32 
1.6904102874444676e-29 
4.009016188579674e-27 
6.956138405872194e-25 
8.830460269098104e-23 
8.201263431991273e-21 
5.572643838276847e-19 
2.770272488966397e-17 
1.0075541888629625e-15 
2.6810038677818034e-14 
5.219267691102358e-13 
7.433675410756536e-12 
7.746075589644888e-11 
5.905302679005885e-10 
3.293714110306081e-9 
1.3440407572837365e-8 
4.012565001489216e-8 
8.76424783173239e-8 
1.4005228622018666e-7 
1.6373771305908126e-7 
1.4005228622018666e-7 
8.76424783173239e-8 
4.012565001489216e-8 
1.3440407572837365e-8 
3.293714110306081e-9 
5.905302679005885e-10 
7.746075589644888e-11 
7.433675410756536e-12 
5.219267691102358e-13 
2.6810038677818034e-14 
1.0075541888629625e-15 
2.770272488966397e-17 
5.572643838276847e-19 
8.201263431991273e-21 
8.830460269098104e-23 
6.956138405872194e-25 
4.009016188579674e-27 
1.6904102874444676e-29 
5.214663781455158e-32 
2.130563791739272e-7 
1.3863861164540507e-5 
4.483673373071298e-28 
4.483673373071298e-28 
1.3863861164540507e-5 
0.779078816631043 
3.261477723230985e-16 
2.1005517847327458e-31 
5.017642367826719e-16 
2.1345087887764444e-49 
2.422037263579611e-49 
2.3741183451682633e-13 
2.092276244794137e-13 
0.015952083593756248 
9.071786402252266e-14 
9.671352786916564e-18 
1.7006386656541246e-6 
4.751951826735953e-15 
2.385089748953629e-41 
4.1338449234848756e-30 
0.0008236095026109427 
2.7931580346493228e-30 
1.9359997718450787e-41 
4.980651605934673e-15 
0.0007185819497654345 
1.0678601298945118e-7 
2.042513564085642e-21 
5.611617358681426e-15 
0.12589622438669648 
6.357030691665892e-22 
1.0123359860831603e-44 
1.1935842678254513e-25 
0.007495170519821159 
2.0261600675283936e-52 
4.101024086195072e-44 
1.9347681441029808e-9 
9.558928674935109e-18 
6.144688538640435e-43 
3.1780533928874136e-51 
3.218744616710613e-17 
6.223364854207199e-9 
0.08314329847663142 
2.158501566641554e-20 
3.550593474409332e-28 
1.3676514290383764e-9 
4.241686103559925e-9 
1.4437951058332768e-28 
1.1899899989646646e-21 
0.03496041208736845 
1.1228298542095703e-20 
2.9616708612434644e-64 
2.5826313697302132e-64 
9.79127079169849e-21 
4.6154774471253594e-29 
1.8686720267187903e-47 
4.198113074810289e-22 
0.0010369053564478021 
2.251490139458814e-39 
2.617823816325986e-36 
3.329731856918038e-7 
2.863772349922695e-10 
1.0429388207585215e-5 
1.8345423929129638e-32 
3.333713030092044e-36 
1.89522086837506e-9 
0.0016528627821638324 
1.1182325899455926e-5 
4.307969086903635e-13 
7.909018693239459e-9 
0.00020967962826317282 
0.0005075406447521637 
5.0607278797459603e-20 
1.6268989002354552e-19 
3.142005443269865e-60 
8.552106971325707e-55 
8.37743520289048e-15 
3.077836964777665e-20 
4.86391894008731e-55 
3.0096486260629985e-60 
3.620837856678881e-20 
5.851663107179489e-15 
0.4698164192023895 
5.967584862633276e-13 
1.8839549769949418e-22 
6.015630199301206e-11 
6.912484195502303e-22 
1.5271265671257758e-50 
9.192803057742375e-34 
4.1610998838391334e-5 
1.5193747822359375e-38 
3.8018105746245826e-53 
2.027817178541007e-21 
8.104073235679706e-7 
0.07982121387210978 
4.079424360034595e-23 
1.2853687938663736e-36 
2.5150548529622686e-15 
1.0828028876624168e-9 
0.0924340487744067 
3.0502190240626103e-15 
2.632665577047594e-36 
7.978060291300872e-23 
1.6408168703249607e-54 
9.466511056480375e-41 
1.0399919447004583e-7 
1.8025984076172455e-21 
2.0199118554908062e-12 
1.889955680318295e-5 
9.298842344278736e-15 
3.4580298467048725e-35 
5.235716350578868e-29 
0.0004231632765972754 
2.7948666689177433e-10 
0.5053920029692915 
6.520558458645885e-11 
2.207334543853152e-26 
1.9363047329016895e-16 
5.102771712849829e-9 
0.0003226225290657079 
2.466201865873093e-28 
4.688845132723258e-33 
6.1338205302067165e-9 
8.277159165203379e-29 
1.0458362911042911e-51 
2.302250133853088e-27 
0.00018220890950234334 
4.998914902006018e-15 
0.0012300205736147 
0.12327706213926386 
1.9163482153283618e-20 
1.0661590950595208e-38 
6.858504646166106e-20 
2.1915563508447006e-14 
3.418934801743794e-44 
6.667286250193924e-36 
4.273766275491738e-6 
1.1441579988940882e-9 
5.910757037741876e-43 
1.08280224263696e-46 
2.0960018585750523e-13 
0.0031950195987795497 
4.8265486120254245e-22 
3.207912545742733e-25 
2.0919535340371626e-6 
0.000284018294928534 
8.103228181002234e-6 
2.2860555879959819e-35 
1.5626612153328753e-53 
5.5390635510382474e-24 
7.011469302126396e-26 
8.004588360933499e-74 
8.004588360933499e-74 
7.011469302126396e-26 
3.136563880173268e-22 
6.179547540864931e-61 
2.308847503946702e-51 
1.1719057423493378e-12 
6.234356892542634e-51 
1.3352825499205587e-60 
4.110970431110185e-22 
1.9193849077340073e-12 
9.779838716653185e-14 
2.413453430304555e-47 
1.8613011258191633e-43 
7.542398806547578e-10 
9.528220415810525e-27 
5.843233156949961e-54 
1.6473548441634354e-32 
2.6862392738985367e-5 
4.948013813706847e-6 
6.820963785740467e-36 
1.0617997305184947e-44 
7.70241871016002e-15 
0.047297108479457554 
2.1196190959570713e-17 
4.526780417399227e-9 
0.14339694632701638 
4.428262785912434e-16 
8.374139299474067e-23 
2.0095872320823538e-8 
0.6737244772665625 
1.0979239183424221e-16 
5.470213854589258e-28 
2.759045132016624e-12 
9.072150554417203e-67 
1.8449824192085317e-62 
6.904281963056309e-19 
3.3949649863998605e-23 
2.140416465952385e-19 
2.0080910801767594e-63 
1.0032631042725849e-67 
1.0693699826362686e-23 
6.72063210488596e-25 
3.1607649502481145e-35 
1.0175785954444706e-12 
0.021636411673709343 
1.1741691923477457e-6 
2.5657502031557993e-23 
3.089563304437722e-19 
0.015911987310234948 
1.212578899747775e-18 
3.0525591944708208e-43 
1.2165733226732531e-27 
0.004832643547611329 
4.998016816704576e-33 
2.3919032446021514e-33 
3.3893838493486683e-7 
7.08230906826896e-7 
8.899138799919588e-10 
1.6888507578791647e-45 
3.13484261791079e-58 
1.6518528504350105e-22 
1.776672762895884e-55 
7.5152635131643e-57 
2.7556142364379698e-17 
6.514506813774982e-16 
3.4477266237424483e-5 
1.144307146794084e-6 
1.072608364710051e-26 
1.650241154570546e-23 
0.0017605525299502194 
9.998877362970681e-11 
5.4561604625533065e-43 
1.1905496922781852e-42 
2.1817821558554655e-10 
2.6722074149967795e-32 
6.73361079711416e-47 
4.409058873987536e-19 
0.00017497132870809072 
3.892074191930381e-12 
5.897726363551519e-35 
2.0176513396240502e-25 
0.013315056675314874 
0.0013946684215571247 
1.209760102171759e-9 
2.1440974431539343e-7 
0.0002719335282640385 
2.458141399326373e-30 
9.63584233022748e-38 
1.0659707068933057e-11 
0.008861301581844434 
1.1714586892790299e-17 
5.444799230333803e-21 
4.7956240883321746e-6 
3.399932480181087e-17 
5.658639035849735e-47 
2.0314002997693998e-35 
1.2205415151022277e-5 
9.66416480027718e-6 
9.025446940550444e-34 
2.7136544935123266e-55 
2.9057008676735162e-27 
4.2536458442757195e-50 
1.598212084101266e-53 
2.503777630745349e-16 
6.663787971976235e-13 
0.006681417039869529 
8.095339326592757e-25 
2.3791770167844967e-45 
1.9636390472793705e-23 
6.671341044549639e-59 
2.7450718661377992e-46 
3.8974374761493477e-10 
9.471959434046214e-23 
8.432196900562606e-12 
0.013276884642527612 
2.80507401711834e-16 
1.9834767216834565e-53 
5.075110247317201e-50 
7.177339787243851e-13 
5.268171022282102e-10 
1.2717441692234815e-11 
1.4818850998028775e-30 
2.1861326267247974e-20 
0.18241285533773005 
1.1804140621538685e-24 
7.288328801467151e-57 
1.3774713593483237e-39 
2.230953963382946e-7 
1.8869948275468293e-6 
2.3677783916018734e-18 
7.473167459122398e-33 
1.4437618926926156e-29 
6.25097914034336e-5 
3.2356199223944906e-8 
3.500511579564155e-16 
2.4188871420164016e-7 
3.584425426846067e-18 
2.630370758129825e-58 
2.4445175314907026e-56 
3.331166724131205e-16 
1.1210203955662788e-66 
5.161888470172705e-59 
1.2061146355300976e-16 
2.6193546035294526e-24 
3.7334100856494764e-59 
8.634110279200032e-67 
2.3449872858626746e-24 
1.0139787636038593e-16 
3.5668170310729056e-14 
5.896780444620054e-7 
0.2105785459717984 
1.195449597228021e-20 
4.315191405509011e-32 
7.601202571325519e-13 
3.4384920085734816e-5 
5.408631458071256e-16 
6.913290919881887e-8 
7.281333807494531e-11 
7.653479969085803e-23 
2.154819198844926e-13 
0.4603019717864566 
0.953854434143564 
1.796005029376371e-13 
1.325930090509469e-26 
4.70538617208484e-14 
4.746268499283921e-9 
9.997289110427581e-44 
7.724761420142903e-60 
3.6673629581327078e-25 
1.5101732690920233e-12 
4.63489577419684e-12 
3.138589741205953e-35 
3.0528474056678136e-47 
1.4584561281060532e-17 
1.49942278006498e-5 
9.959173499305779e-6 
1.1728112442578076e-54 
1.552285510397611e-48 
1.0391237843277485e-11 
7.850977172088254e-18 
0.0747639103691457 
2.659618144622928e-18 
3.821609617584382e-39 
1.0742818746416614e-22 
2.939150951885684e-26 
3.174452168343596e-56 
2.2657981479903107e-36 
2.0978493519488845e-6 
9.38359531377423e-24 
2.396067212947156e-40 
1.0843987761497208e-18 
0.04246772022484874 
0.008047497063529334 
4.734942804225424e-27 
6.403884618966613e-41 
1.0884035953137285e-16 
9.166006794451988e-5 
0.00012964179501933506 
6.787719766457555e-24 
9.600390418290336e-24 
1.5435849479804368e-48 
4.143274509596745e-55 
3.2266050988399493e-18 
1.2020791282106736e-11 
5.632877221813902e-18 
2.809862045408365e-45 
1.676780464787282e-31 
0.0003361422040299174 
5.8259274687235956e-30 
6.7547469578877605e-56 
1.344451194413406e-31 
1.1595808315183027e-5 
3.2546454388996843e-7 
2.059137457203768e-39 
1.0613054257121024e-50 
1.6774908053256106e-18 
2.6336173832800726e-73 
2.364414996518572e-70 
2.2807121242223838e-23 
2.540396955477003e-26 
2.364414996518572e-70 
2.6336173832800726e-73 
2.540396955477003e-26 
2.2807121242223838e-23 
0.4621196258567144 
1.2252912874383598e-14 
1.780172999467959e-32 
6.713945267108798e-19 
0.12384270671831388 
6.214492280531821e-20 
1.4434693518321054e-8 
7.108726773102864e-16 
0.010909936635900902 
0.32118389717574014 
6.464027895896442e-20 
2.6994673506978107e-34 
1.2932481797624184e-15 
0.00043921884530672887 
1.0471001430715872e-22 
8.481563684577306e-49 
3.557689339902423e-30 
2.037258078291752e-12 
3.687942420690463e-5 
2.1069928404776936e-29 
1.02775219581876e-31 
1.7989096474924372e-7 
5.951274438547752e-60 
3.649893167009587e-44 
3.163829940419781e-9 
5.158734405501658e-25 
8.557626448823524e-10 
0.034753083589800164 
6.816620969525923e-19 
3.820443615477956e-24 
1.8338874529381342e-7 
5.6042851511326194e-33 
3.6371062716806934e-57 
2.9030918517565395e-30 
4.473284197525984e-6 
6.67541992012588e-31 
1.9124352790868256e-25 
0.0027011375630063544 
9.428403589924187e-9 
3.769702348155692e-15 
5.297008776652204e-5 
1.4321686037304672e-37 
3.359011868808576e-39 
1.131433463869071e-9 
4.824038619146206e-8 
0.009679416095956033 
2.18815295035407e-15 
2.253134880888125e-39 
9.966853314778321e-27 
4.657075747982663e-7 
2.164163167973092e-37 
4.879852579714891e-43 
1.0500987276883233e-12 
5.712640398352804e-9 
4.993038490700663e-26 
1.9645159885283856e-18 
0.13797783896216934 
2.0664537942224897e-46 
4.694034757878615e-40 
5.48580976679578e-8 
2.4150172546079786e-14 
2.392594567412329e-18 
3.5920838768002446e-51 
1.5498941656441292e-40 
1.032348711436575e-7 
8.58598051329315e-13 
1.5004721742881114e-39 
3.4681227504789863e-31 
0.00019845230349594686 
1.6889290719181007e-11 
2.22595254485198e-39 
1.8670629755021728e-33 
1.4166236092252185e-5 
1.593412353170683e-17 
8.432752117405386e-5 
1.4492902306997606e-40 
1.7224681569282577e-58 
9.232919096833752e-26 
7.768634269125735e-8 
1.303117086114676e-29 
2.2013304161231195e-80 
2.2013304161231195e-80 
1.303117086114676e-29 
0.006195021050132672 
8.706691514252238e-25 
3.399282249313252e-31 
2.413152852747198e-9 
0.1460963877076434 
1.8225230458296674e-19 
9.377476834181634e-12 
0.0005600331491696722 
1.2828490649753417e-10 
1.2891336984987226e-20 
6.103176538632876e-51 
3.033386256181592e-36 
6.407247242006889e-6 
2.2425623801090547e-10 
1.0523540933185448e-17 
1.3298193259107813e-59 
2.973632537054174e-62 
2.3531940853242895e-20 
6.694640818853747e-26 
1.2055727886062137e-28 
7.170166199079428e-7 
0.0003992890075915344 
1.2366004909181636e-25 
7.040426882715305e-50 
2.915421145890823e-28 
0.0005120734304081396 
1.1390273281766809e-5 
1.3236609281242981e-6 
1.3103244954352004e-5 
3.000923342512991e-25 
6.036427220189419e-25 
1.6959533051672586e-23 
1.3998803120299313e-23 
2.5652303599705764e-21 
2.1811199479388356e-21 
0.0005313371482943305 
0.006012994975374357 
0.0018189540646188379 
7.678378750200731e-11 
3.305889071018661e-9 
3.4586958264005334e-9 
1.4396919009343348e-24 
4.367551995385099e-22 
7.992623465033685e-24 
7.167648178748041e-15 
3.842503324062081e-14 
1.2350769758496792e-15 
0.5352047689693868 
0.2660066042451787 
0.2988709112288374 
0.00015686787248390678 
1.831852030423226e-5 
0.00029523128315568094 
0.0033827485277042645 
6.59738221350707e-22 
1.3869779337299054e-21 
1.4383987149370823e-21 
2.668709480961209e-19 
0.28738464056568963 
0.15159488088146178 
6.632466376341066e-10 
3.07461447640106e-8 
3.618451169951902e-26 
1.1749028560547819e-23 
2.122555897008597e-17 
1.2076610978156915e-16 
1.1722886452908752e-13 
2.3829146669064226e-13 
4.9832133918037045e-12 
0.013823476402469543 
0.0020324575121591247 
0.002541852051400274 
0.00030037448675286805 
0.0015625994910828255 
6.617195311702965e-20 
2.037421553865378e-22 
3.7494180178302025e-20 
1.3522539954332547e-56 
7.589602073212135e-60 
1.4487179671070062e-55 
1.175940235052481e-47 
9.410389256642509e-49 
4.180828531784993e-45 
5.7544291312186104e-11 
2.5262132899721627e-11 
1.0820387739817704e-9 
5.797842407917587e-22 
4.4117236140197066e-24 
1.5819626070953476e-68 
5.288931099694376e-72 
4.478172040974456e-74 
3.4075533536113764e-76 
1.641232206095244e-27 
2.842384885920837e-28 
1.641232206095244e-27 
2.842384885920837e-28 
4.478172040974456e-74 
3.4075533536113764e-76 
1.5819626070953476e-68 
5.288931099694376e-72 
5.797842407917587e-22 
4.4117236140197066e-24 
0.6689218212900871 
0.31964975508086346 
0.38782919414657546 
2.2286144852965093e-15 
2.0521643856154314e-17 
3.1286218626348437e-18 
6.817213228937155e-32 
1.845000662645962e-35 
5.922244949294006e-35 
2.046193785119768e-17 
2.8738156299580005e-19 
7.341304169459413e-18 
3.834449470998248e-66 
9.97387615963313e-64 
4.5168375657014867e-69 
6.2893299737300695e-56 
4.136943416130061e-55 
8.224545135367742e-60 
7.34645391015361e-15 
1.424687160706842e-14 
6.518167409681824e-17 
4.478963705010161e-25 
3.4348160397315446e-23 
3.5797016241832e-26 
6.99754953677827e-60 
5.9453781080227444e-55 
1.0540578929802519e-55 
3.9657087269647957e-69 
1.3232012726341607e-63 
5.748776323947581e-66 
3.388496942602159e-26 
3.8262489552459835e-23 
5.229793362933679e-25 
5.979041474431081e-17 
1.7191983867942488e-14 
9.5890367099632e-15 
5.871883688699563e-25 
1.14412520391688e-64 
4.271156071015393e-53 
2.1920390766897394e-13 
7.030041167255546e-53 
1.684606421248478e-64 
6.733436580916786e-25 
2.809946309425881e-13 
3.887083719600553e-48 
3.8767438973758633e-50 
2.450909337203475e-59 
2.7348232219209107e-63 
3.1216936638690053e-22 
4.522303584500668e-25 
4.950923304045799e-11 
6.410602950572728e-12 
0.010613775669844583 
0.009940219104230888 
0.0018270346587394627 
5.137761990099749e-20 
2.471223647001095e-21 
4.2171996389432035e-65 
7.706932689114005e-67 
2.528291481269297e-71 
1.8180667175951066e-70 
3.080205637956387e-26 
5.829632508786543e-25 
5.610505910896877e-26 
1.0713062118998549e-24 
7.772209918786005e-71 
5.638678577063624e-70 
1.3067642082993947e-64 
2.4093770437272547e-66 
9.433050471786806e-20 
4.577626660604984e-21 
0.2232527433889328 
0.10933730230984386 
2.168213279546647e-16 
2.5711545436848664e-19 
9.90663680516478e-36 
7.26968144901427e-39 
1.0200477539080246e-20 
3.09139848944728e-21 
3.0823359649708474e-10 
1.4656569861479923e-10 
3.341494982819355e-9 
1.0975294470961276e-45 
1.1937399341457162e-45 
7.54670369487749e-43 
4.089340396291841e-53 
8.370875039607216e-51 
7.34584849860123e-49 
1.1484612217946757e-17 
1.0277636619669005e-15 
3.2525629317105064e-15 
1.0504370541346445e-10 
4.5771452894000765e-11 
1.7649134300022e-20 
5.252664788833737e-18 
5.73916938635696e-55 
9.370239465254117e-52 
2.4182256205744674e-43 
2.769094016453634e-42 
7.43655895530703e-9 
1.552267753318716e-8 
2.3697565537544462e-35 
9.234167020615797e-34 
7.090740361918444e-37 
5.9505256568550475e-50 
3.832440140733686e-50 
2.932546602820696e-53 
3.5166046138868386e-20 
1.846334448698884e-21 
1.2751142960589304e-22 
1.4004668426013299e-5 
4.4486827667521807e-5 
3.083162134275046e-6 
2.278451521531806e-52 
7.722117666634689e-57 
9.344611036322354e-54 
4.991715649321262e-53 
1.5310638715075984e-56 
9.59602235105352e-53 
2.9925918475491425e-15 
1.0822640220863772e-16 
1.1090592691656061e-14 
1.3659588131918938e-14 
5.4585436526900456e-17 
1.080003510442672e-15 
3.1465244933695044e-12 
3.250040043432216e-11 
2.8487226964913382e-49 
1.8663203696971347e-46 
2.8608473178217555e-54 
4.896400172181133e-50 
3.1599240733248436e-17 
8.52663529136039e-15 
0.00014879013466837068 
0.0007850946645317919 
7.115395420218316e-5 
0.005514693577432018 
8.11467866439017e-56 
2.351415780626152e-51 
3.957043015312122e-53 
1.2670095193909174e-49 
1.737124097965959e-14 
4.717368864190389e-13 
3.562310510530636e-17 
8.754843798543557e-15 