# vtk DataFile Version 3.0 
Unstructured Grid 
ASCII 
DATASET UNSTRUCTURED_GRID
POINTS 2173 float 
-0.5 -0.5 0  
0.5 -0.5 0  
0.5 0.5 0  
-0.5 0.5 0  
-0.475 -0.5 0  
-0.45 -0.5 0  
-0.425 -0.5 0  
-0.4 -0.5 0  
-0.375 -0.5 0  
-0.35 -0.5 0  
-0.325 -0.5 0  
-0.3 -0.5 0  
-0.275 -0.5 0  
-0.25 -0.5 0  
-0.225 -0.5 0  
-0.2 -0.5 0  
-0.175 -0.5 0  
-0.15 -0.5 0  
-0.125 -0.5 0  
-0.1 -0.5 0  
-0.075 -0.5 0  
-0.05 -0.5 0  
-0.025 -0.5 0  
-1.3761214e-12 -0.5 0  
0.025 -0.5 0  
0.05 -0.5 0  
0.075 -0.5 0  
0.1 -0.5 0  
0.125 -0.5 0  
0.15 -0.5 0  
0.175 -0.5 0  
0.2 -0.5 0  
0.225 -0.5 0  
0.25 -0.5 0  
0.275 -0.5 0  
0.3 -0.5 0  
0.325 -0.5 0  
0.35 -0.5 0  
0.375 -0.5 0  
0.4 -0.5 0  
0.425 -0.5 0  
0.45 -0.5 0  
0.475 -0.5 0  
0.5 -0.475 0  
0.5 -0.45 0  
0.5 -0.425 0  
0.5 -0.4 0  
0.5 -0.375 0  
0.5 -0.35 0  
0.5 -0.325 0  
0.5 -0.3 0  
0.5 -0.275 0  
0.5 -0.25 0  
0.5 -0.225 0  
0.5 -0.2 0  
0.5 -0.175 0  
0.5 -0.15 0  
0.5 -0.125 0  
0.5 -0.1 0  
0.5 -0.075 0  
0.5 -0.05 0  
0.5 -0.025 0  
0.5 -1.3761214e-12 0  
0.5 0.025 0  
0.5 0.05 0  
0.5 0.075 0  
0.5 0.1 0  
0.5 0.125 0  
0.5 0.15 0  
0.5 0.175 0  
0.5 0.2 0  
0.5 0.225 0  
0.5 0.25 0  
0.5 0.275 0  
0.5 0.3 0  
0.5 0.325 0  
0.5 0.35 0  
0.5 0.375 0  
0.5 0.4 0  
0.5 0.425 0  
0.5 0.45 0  
0.5 0.475 0  
0.475 0.5 0  
0.45 0.5 0  
0.425 0.5 0  
0.4 0.5 0  
0.375 0.5 0  
0.35 0.5 0  
0.325 0.5 0  
0.3 0.5 0  
0.275 0.5 0  
0.25 0.5 0  
0.225 0.5 0  
0.2 0.5 0  
0.175 0.5 0  
0.15 0.5 0  
0.125 0.5 0  
0.1 0.5 0  
0.075 0.5 0  
0.05 0.5 0  
0.025 0.5 0  
1.3761214e-12 0.5 0  
-0.025 0.5 0  
-0.05 0.5 0  
-0.075 0.5 0  
-0.1 0.5 0  
-0.125 0.5 0  
-0.15 0.5 0  
-0.175 0.5 0  
-0.2 0.5 0  
-0.225 0.5 0  
-0.25 0.5 0  
-0.275 0.5 0  
-0.3 0.5 0  
-0.325 0.5 0  
-0.35 0.5 0  
-0.375 0.5 0  
-0.4 0.5 0  
-0.425 0.5 0  
-0.45 0.5 0  
-0.475 0.5 0  
-0.5 0.475 0  
-0.5 0.45 0  
-0.5 0.425 0  
-0.5 0.4 0  
-0.5 0.375 0  
-0.5 0.35 0  
-0.5 0.325 0  
-0.5 0.3 0  
-0.5 0.275 0  
-0.5 0.25 0  
-0.5 0.225 0  
-0.5 0.2 0  
-0.5 0.175 0  
-0.5 0.15 0  
-0.5 0.125 0  
-0.5 0.1 0  
-0.5 0.075 0  
-0.5 0.05 0  
-0.5 0.025 0  
-0.5 1.3761214e-12 0  
-0.5 -0.025 0  
-0.5 -0.05 0  
-0.5 -0.075 0  
-0.5 -0.1 0  
-0.5 -0.125 0  
-0.5 -0.15 0  
-0.5 -0.175 0  
-0.5 -0.2 0  
-0.5 -0.225 0  
-0.5 -0.25 0  
-0.5 -0.275 0  
-0.5 -0.3 0  
-0.5 -0.325 0  
-0.5 -0.35 0  
-0.5 -0.375 0  
-0.5 -0.4 0  
-0.5 -0.425 0  
-0.5 -0.45 0  
-0.5 -0.475 0  
-0.002115384 -0.00023065208 0  
-0.20714286 -0.20714286 0  
0.20714286 -0.20714286 0  
0.20714286 0.20714286 0  
-0.20714286 0.20714286 0  
-0.28155318 -0.0017231192 0  
0.0017231192 -0.28155318 0  
0.28155318 0.0017231192 0  
-0.0017231192 0.28155318 0  
0.3319978 -0.33098683 0  
0.33098683 0.3319978 0  
-0.3319978 0.33098683 0  
-0.33098683 -0.3319978 0  
-0.14015679 -0.06698606 0  
0.06698606 -0.14015679 0  
0.14015679 0.06698606 0  
-0.06698606 0.14015679 0  
-0.1387125 -0.34573975 0  
0.34573975 -0.1387125 0  
0.1387125 0.34573975 0  
-0.34573975 0.1387125 0  
0.14046866 -0.34602854 0  
0.34602854 0.14046866 0  
-0.14046866 0.34602854 0  
-0.34602854 -0.14046866 0  
-0.05869875 -0.16617337 0  
0.18217777 -0.061504476 0  
0.062312964 0.18362015 0  
-0.18362015 0.062312964 0  
-0.034321424 -0.38563195 0  
0.38563195 -0.034321424 0  
0.034321424 0.38563195 0  
-0.38563195 0.034321424 0  
0.39586002 -0.2428538 0  
0.2428538 0.39586002 0  
-0.39586002 0.2428538 0  
-0.2428538 -0.39586002 0  
0.23688246 -0.38952246 0  
0.38952246 0.23688246 0  
-0.23688246 0.38952246 0  
-0.38952246 -0.23688246 0  
-0.24287231 -0.09948847 0  
0.09948847 -0.24287231 0  
0.24287231 0.09948847 0  
-0.09948847 0.24287231 0  
-0.11560815 -0.24300627 0  
0.24300627 -0.11560815 0  
0.11560815 0.24300627 0  
-0.24300627 0.11560815 0  
-0.40192315 -0.4008276 0  
0.4008276 -0.40192315 0  
0.40192315 0.4008276 0  
-0.4008276 0.40192315 0  
0.06409326 -0.40289903 0  
0.40289903 0.06409326 0  
-0.06409326 0.40289903 0  
-0.40289903 -0.06409326 0  
0.2962961 -0.23982804 0  
0.23982804 0.2962961 0  
-0.2962961 0.23982804 0  
-0.23982804 -0.2962961 0  
-0.28087237 -0.21196799 0  
0.21196799 -0.28087237 0  
0.28087237 0.21196799 0  
-0.21196799 0.28087237 0  
-0.0901279 0.007867504 0  
-0.05002927 -0.07494272 0  
0.0873353 -0.009871756 0  
0.0071518295 0.09216282 0  
-0.14120433 -0.1484696 0  
-0.14581114 0.13960092 0  
0.1458264 -0.14505939 0  
0.13960092 0.14581114 0  
0.41838804 -0.3182741 0  
0.3182741 0.41838804 0  
-0.41838804 0.3182741 0  
-0.3182741 -0.41838804 0  
0.32118136 -0.41712493 0  
0.41712493 0.32118136 0  
-0.32118136 0.41712493 0  
-0.41712493 -0.32118136 0  
-0.19707234 -0.014843048 0  
0.018050108 -0.20183705 0  
0.19707234 0.014843048 0  
-0.014843048 0.19707234 0  
-0.10938372 -0.41847488 0  
0.41847488 -0.10938372 0  
0.10938372 0.41847488 0  
-0.41847488 0.10938372 0  
0.15773043 -0.4267032 0  
0.4267032 0.15773043 0  
-0.15773043 0.4267032 0  
-0.4267032 -0.15773043 0  
-0.3204562 -0.07174808 0  
0.07174808 -0.3204562 0  
0.3204562 0.07174808 0  
-0.07174808 0.3204562 0  
0.02801032 -0.07269879 0  
-0.31817523 0.069836795 0  
-0.069836795 -0.31817523 0  
0.31817523 -0.069836795 0  
0.069836795 0.31817523 0  
0.43106207 -0.17757268 0  
0.17757268 0.43106207 0  
-0.43106207 0.17757268 0  
-0.17757268 -0.43106207 0  
0.0703783 0.071201205 0  
-0.051593844 0.064346604 0  
0.099701226 -0.08333426 0  
0.2863281 -0.17248559 0  
0.17248559 0.2863281 0  
-0.2863281 0.17248559 0  
-0.17248559 -0.2863281 0  
-0.2341888 0.04979648 0  
-0.049194112 -0.231281 0  
0.23358595 -0.04946041 0  
0.04979648 0.2341888 0  
-0.009939441 -0.13691185 0  
-0.26560438 -0.17864102 0  
0.17864102 -0.26560438 0  
0.26560438 0.17864102 0  
-0.17864102 0.26560438 0  
0.013302229 -0.43510666 0  
0.43510666 0.013302229 0  
-0.013302229 0.43510666 0  
-0.43510666 -0.013302229 0  
0.09432827 0.114700764 0  
-0.11539384 0.093188405 0  
-0.3413634 -0.005100272 0  
0.005100272 -0.3413634 0  
0.3413634 0.005100272 0  
-0.005100272 0.3413634 0  
-0.19817708 -0.3508856 0  
0.3508856 -0.19817708 0  
0.19817708 0.3508856 0  
-0.3508856 0.19817708 0  
-0.34100306 -0.27216324 0  
0.27216324 -0.34100306 0  
0.34100306 0.27216324 0  
-0.27216324 0.34100306 0  
-0.20269383 -0.14403741 0  
0.14393912 -0.2028372 0  
0.2026342 0.14393856 0  
-0.14393856 0.2026342 0  
-0.1030633 -0.10524017 0  
-0.4394695 -0.104853734 0  
0.104853734 -0.4394695 0  
0.4394695 0.104853734 0  
-0.104853734 0.4394695 0  
-0.44156647 -0.44156647 0  
0.44156647 -0.44156647 0  
0.44156647 0.44156647 0  
-0.44156647 0.44156647 0  
-0.2683254 -0.44465622 0  
0.44465622 -0.2683254 0  
0.2683254 0.44465622 0  
-0.44465622 0.2683254 0  
0.2654342 -0.4435478 0  
0.4435478 0.2654342 0  
-0.2654342 0.4435478 0  
-0.4435478 -0.2654342 0  
-0.27373606 -0.34534052 0  
0.34534052 -0.27373606 0  
0.27373606 0.34534052 0  
-0.34534052 0.27373606 0  
-0.05307205 -0.4481981 0  
0.4481981 -0.05307205 0  
0.05307205 0.4481981 0  
-0.4481981 0.05307205 0  
-0.35614902 -0.19390328 0  
0.19390328 -0.35614902 0  
0.35614902 0.19390328 0  
-0.19390328 0.35614902 0  
-0.14022674 -0.012452113 0  
0.14171903 0.011271359 0  
-0.01125192 0.14089845 0  
-0.19556868 -0.06932378 0  
0.070511825 -0.19668652 0  
0.19556868 0.06932378 0  
-0.06932378 0.19556868 0  
-0.24951252 -0.039742906 0  
0.04037078 -0.2503529 0  
0.24951252 0.039742906 0  
-0.039742906 0.24951252 0  
0.44100407 -0.36164257 0  
0.36164257 0.44100407 0  
-0.44100407 0.36164257 0  
-0.36164257 -0.44100407 0  
-0.4451273 -0.36589316 0  
0.36589316 -0.4451273 0  
0.4451273 0.36589316 0  
-0.36589316 0.4451273 0  
0.1121834 -0.30242515 0  
0.30242515 0.1121834 0  
-0.1121834 0.30242515 0  
-0.30242515 -0.1121834 0  
-0.115146436 -0.19087775 0  
0.19190264 -0.11309679 0  
0.11520548 0.19263776 0  
-0.19263776 0.11520548 0  
-0.08287991 -0.37025127 0  
0.37025127 -0.08287991 0  
0.08287991 0.37025127 0  
-0.37025127 0.08287991 0  
0.23791528 -0.24381089 0  
0.24381089 0.23791528 0  
-0.23791528 0.24381089 0  
-0.24381089 -0.23791528 0  
-0.44626984 -0.21174923 0  
0.21174923 -0.44626984 0  
0.44626984 0.21174923 0  
-0.21174923 0.44626984 0  
0.35174853 -0.37705234 0  
0.37705234 0.35174853 0  
-0.35174853 0.37705234 0  
-0.37705234 -0.35174853 0  
-0.048605647 -0.023262763 0  
-0.1551113 -0.21381997 0  
0.21381997 -0.1551113 0  
0.1551113 0.21381997 0  
-0.21381997 0.1551113 0  
-0.29403278 -0.30027482 0  
0.30027482 -0.29403278 0  
0.29403278 0.30027482 0  
-0.30027482 0.29403278 0  
0.12173745 -0.390654 0  
0.390654 0.12173745 0  
-0.12173745 0.390654 0  
-0.390654 -0.12173745 0  
-0.12236246 -0.2979882 0  
0.2979882 -0.12236246 0  
0.12236246 0.2979882 0  
-0.2979882 0.12236246 0  
-0.0945969 -0.046371013 0  
0.035276897 -0.027358124 0  
-0.0076714605 0.051946 0  
-0.30809116 -0.17165439 0  
0.17165439 -0.30809116 0  
0.30809116 0.17165439 0  
-0.17165439 0.30809116 0  
-0.16592422 -0.10879113 0  
0.10700909 -0.1687818 0  
0.16864619 0.10664837 0  
-0.10664837 0.16864619 0  
-0.16784625 -0.38069874 0  
0.38069874 -0.16784625 0  
0.16784625 0.38069874 0  
-0.38069874 0.16784625 0  
-0.4563872 -0.05993889 0  
0.05993889 -0.4563872 0  
0.4563872 0.05993889 0  
-0.05993889 0.4563872 0  
0.31103167 -0.37412483 0  
0.37412483 0.31103167 0  
-0.31103167 0.37412483 0  
-0.37412483 -0.31103167 0  
-0.3909646 -0.012754724 0  
0.012754724 -0.3909646 0  
0.3909646 0.012754724 0  
-0.012754724 0.3909646 0  
0.44915667 -0.21679194 0  
0.21679194 0.44915667 0  
-0.44915667 0.21679194 0  
-0.21679194 -0.44915667 0  
0.045831423 0.12033131 0  
-0.12662303 0.045442794 0  
-0.3107799 -0.37355793 0  
0.37355793 -0.3107799 0  
0.3107799 0.37355793 0  
-0.37355793 0.3107799 0  
0.04152367 0.021693805 0  
-0.08040017 -0.2675595 0  
0.26794365 -0.08044455 0  
0.080500565 0.2680441 0  
-0.2680441 0.080500565 0  
-0.13753757 -0.45578164 0  
0.45578164 -0.13753757 0  
0.13753757 0.45578164 0  
-0.45578164 0.13753757 0  
-0.05507968 -0.12135967 0  
0.14172421 -0.09428923 0  
0.2571752 -0.19664502 0  
[...]
POINT_DATA 2173 
SCALARS T float 
LOOKUP_TABLE default 
-1.79395774881486e-19 
-2.0558168703920927e-18 
-1.3297508784423948e-18 
-8.097954406580076e-21 
1.3255068922512322e-18 
9.628196350281741e-18 
-1.2307328823014074e-17 
1.7887765160596902e-17 
6.727644633714028e-18 
-4.2092364603886044e-18 
3.7070744006327078e-19 
-3.732357792887573e-18 
3.113968104589649e-17 
-4.2793730528836365e-17 
1.598827165413925e-17 
-3.852132110328322e-18 
1.4789062524610533e-18 
-1.6132185666603528e-18 
6.264480655082239e-18 
-8.750930374641724e-18 
3.179957844142877e-17 
-7.156180563150234e-18 
-1.8223967737605173e-17 
6.2067999708186815e-18 
5.514586705354097e-19 
-6.491495107305026e-18 
2.957567752439478e-17 
-3.590603885225679e-17 
3.131361275839635e-18 
-3.760456542884304e-17 
1.4776307794116428e-17 
-3.7307390066645864e-17 
1.0950648197674595e-17 
-3.402783214945381e-17 
-1.3519073008696913e-16 
3.724438581573346e-18 
-4.797679303435864e-17 
-2.3425259412064296e-17 
-5.843895988388792e-17 
-6.396143345319567e-17 
6.85685298267168e-17 
-1.6833338962679557e-17 
1.648529113996705e-17 
-2.3762986815739254e-17 
2.051221061961172e-17 
-1.0714646121307357e-16 
1.0584949825379174e-16 
7.266820279755725e-17 
2.3821163243270142e-17 
-9.254408215515451e-17 
-1.1566390256361042e-16 
1.0442076779126698e-16 
-1.8212463431010726e-16 
2.0871761054138886e-16 
-6.32370884110623e-17 
1.6331187140062194e-16 
-1.46777921578986e-17 
-4.0020291181563677e-17 
4.077630278643341e-18 
-5.908223896540916e-17 
7.175043330954463e-17 
-7.406263576307315e-17 
5.552691526026574e-17 
-3.531490390807884e-17 
4.527113187574687e-17 
-1.3050378531258452e-16 
1.801920720058614e-16 
1.6111942020482505e-16 
2.919002648677033e-16 
-2.9821245456798863e-16 
6.164208360968037e-16 
-6.527170959585417e-16 
1.150345356079431e-16 
6.186620943929197e-17 
9.596702577369308e-16 
-2.062415027190086e-17 
6.273482370981555e-16 
1.459675754523454e-17 
-1.7340379019225618e-16 
1.160845639952106e-16 
-1.0093339530756466e-16 
-1.326447313059759e-16 
1.025497751880963e-16 
-2.286080506448837e-17 
-3.795980732349898e-16 
2.6491435984018407e-17 
1.9877323525594285e-16 
3.443839737419771e-16 
4.522126463470868e-16 
-4.2873834872338314e-16 
-1.210064451144413e-16 
1.5646906191449272e-16 
-2.488153842973894e-16 
6.551810628890859e-16 
4.584890209273879e-16 
2.1307252162957568e-16 
7.505388506947781e-16 
-1.1433063684745218e-15 
9.870076320737454e-16 
-2.5874693302096096e-16 
-5.66949807860378e-16 
8.239956890438418e-16 
-6.968025553306374e-16 
5.301738501815424e-16 
5.447136031501486e-17 
-1.5331831817329532e-16 
1.1338173093145751e-17 
-4.14288004334199e-17 
1.1789285637901956e-17 
-7.54783384260948e-17 
2.7846643503011727e-18 
-4.786849599721877e-17 
-2.8961699759086294e-17 
-1.396082828959776e-17 
1.6817666277704228e-18 
-9.211112079975542e-18 
-4.5977713669673624e-18 
-1.6674779202165089e-18 
-1.0091581500942732e-18 
-8.28189773597728e-19 
5.109041860060527e-19 
-5.331228113479887e-19 
7.19943021341585e-19 
1.06555119906191e-18 
1.3840451149081624e-18 
1.1196421944976526e-18 
-7.878176418897969e-19 
-7.571584006946845e-19 
-3.2789097901634792e-18 
-6.73333836714663e-20 
-8.685583167815751e-20 
1.2201379452069007e-18 
2.332498033955741e-19 
-5.852110925519807e-19 
1.6680964067535533e-18 
-1.7240414314038154e-18 
2.172888209156701e-18 
-1.041356140473384e-18 
-2.5848516411449644e-19 
1.2408456736896805e-18 
-2.0921099315517433e-18 
2.2062283467335523e-18 
-2.4400344186556697e-18 
1.3938222966924015e-18 
6.520482596374013e-18 
-3.661941282340381e-18 
1.0486183032054607e-18 
-3.0453585038014766e-18 
5.759901535703446e-19 
-2.605261444709643e-19 
3.285467450727458e-18 
-1.5846559361143327e-18 
1.5196014826832238e-18 
-2.1345670783532024e-18 
-1.7466989837008284e-17 
-1.2271452770751893e-17 
-7.705052658033704e-18 
1.0800520118078557e-17 
-5.773837671031304e-18 
-2.0220012813951463e-18 
7.06766880072569e-6 
-2.3498195711363376e-5 
1.5875836475042203e-7 
0.0003537146644400823 
0.17668820652537476 
-1.0729276446963267e-5 
-1.728260108811195e-5 
-2.0786088267542476e-5 
0.049092884442932284 
-4.394123666490751e-5 
-0.0002537395795965605 
-2.371617362874938e-5 
-7.721023593863455e-6 
-6.261694416431322e-6 
-2.05122370870185e-5 
-0.0003061799641303466 
0.147489294125558 
-2.3856807587908144e-5 
-5.28795488330585e-5 
-0.0006318942054430016 
-4.459771819773962e-5 
-4.363115584943885e-6 
-0.00034299414939004 
0.045462586837992716 
-4.6791975636858066e-7 
2.1456733973167182e-5 
-0.0001243306408152415 
0.0019056964729873597 
0.006187840771725263 
3.3418168166338565e-5 
4.6378167020455675e-5 
0.0003134806191999219 
-2.39368900864427e-7 
7.776845782411256e-5 
-0.00020523587023844284 
6.421178612202403e-7 
1.2764470361017876e-5 
-1.3336671652995139e-6 
0.00026451264518476955 
0.00012873707237057752 
4.647881295704202e-6 
3.159449693174016e-7 
-4.2855218547994096e-5 
0.00046536655523174805 
0.5593049721511412 
1.6372111191646804e-5 
-0.00010363499221719802 
0.0015157044408725048 
0.011958586118971744 
-7.442582572421075e-6 
-5.1243098460733806e-5 
0.0002022453034688045 
-6.947626910377527e-6 
-2.9739051173475746e-5 
0.00013738646678328894 
0.0033733793243744914 
-3.158722289321639e-6 
3.597099578600721e-5 
7.909721955759047e-5 
0.0031896171163394607 
-1.4401365687637188e-5 
-4.199958059736115e-6 
-3.633227113463031e-5 
-5.6871829547317045e-6 
0.08354640166069321 
0.00017914768928832983 
4.921945422575538e-6 
-1.1964016119724795e-5 
0.004396162548613012 
-1.3330342609532645e-8 
0.20142019027008312 
1.9194736506295705e-5 
-0.0013647713387244993 
-2.7020791787136472e-5 
7.405256616792658e-5 
3.0644028149125265e-6 
-7.040208187543812e-6 
-1.1921722789658203e-5 
0.0006838544779967529 
4.661547745584264e-6 
-4.843508056707762e-7 
-1.6733703317813366e-5 
-7.055543576069291e-6 
7.931417872268968e-5 
0.11975852148231426 
7.366851140083555e-6 
-8.359786982819917e-5 
0.0009936828587741758 
1.4165689405532418e-6 
-1.8674306476470698e-5 
-7.909620120608798e-5 
0.0005091179150242722 
6.406099514283405e-7 
-3.7575885355764693e-6 
1.346452512974994e-5 
-1.661592353461107e-5 
0.09421398340204629 
-5.306085404490186e-5 
-4.518977693724787e-5 
1.6640573474771122e-5 
8.650741547560301e-5 
0.0017334747980507176 
-2.329638289210817e-6 
-0.00010151215876729888 
1.6438199332915143e-6 
1.84231740357198e-6 
0.0005277009857559948 
0.005782284096466677 
3.380559857573407e-5 
-4.273438513959441e-6 
-0.0007075932790500213 
0.0064256630322049035 
-5.497652792188794e-6 
0.0006679919211893338 
-8.575383976588742e-6 
-2.45984928669662e-5 
0.009004579281257917 
-1.0008962516515661e-5 
-1.1517769794304635e-5 
2.826861607532422e-6 
0.000539717637240693 
0.2480621043969271 
-4.745551945738712e-6 
-3.987090020052085e-5 
0.000498149781937597 
3.637266961209509e-6 
0.0003441621844920277 
0.04666608276522688 
-1.8427366338210508e-6 
9.591387410688328e-6 
-0.00010669808539840781 
0.0075115952817840295 
-2.4519641279557404e-5 
-4.1386054587634495e-5 
0.0005816745369580773 
-2.4119245044038206e-5 
-6.318586905087461e-6 
-2.016283057217975e-5 
0.0004127726888470073 
0.0007892106230792161 
-5.368526504173887e-6 
-1.4579314381173011e-5 
-0.0007314679699861667 
0.5169536251006325 
3.207260841532255e-6 
8.333241372408252e-7 
-1.6315339072018146e-5 
9.010103764091596e-5 
0.00038744102548130997 
1.458345119888606e-6 
5.789254666258938e-6 
0.00011763777525078582 
-4.774140918190938e-7 
1.3313574636187366e-6 
6.819600074500927e-5 
0.000178490892930631 
2.343509380200335e-6 
-6.13259097454876e-5 
0.000276913460384763 
1.1944319308507835e-5 
2.5489192394126222e-6 
-4.5159102576732214e-6 
4.352321230813709e-5 
0.00023247510172545456 
-8.6751916164001e-5 
-2.6480016297375213e-5 
-2.0000423794329533e-5 
-6.010088696385297e-5 
2.28451571783478e-6 
-2.5659699662661337e-6 
-3.876168453513359e-5 
0.0005269100192442595 
0.010762947166627691 
2.831451587956757e-7 
4.604178404590697e-6 
0.03878248525872694 
-1.3685139428066918e-6 
-6.4869479190137714e-6 
3.037887121489016e-5 
0.3992348334057156 
-4.611596860785501e-6 
1.703031132490737e-5 
-7.912586926818385e-5 
0.22626842029321176 
-8.144210771371133e-6 
0.0004265632760290156 
-3.910725590844413e-6 
1.0505972624926149e-5 
2.780725760241769e-6 
6.190668885495462e-6 
0.00045962663723987885 
-7.564136477931279e-6 
-1.7549804498873807e-5 
0.0003300390650659386 
0.21272679052494328 
-6.61378924488768e-6 
-8.12299494606433e-6 
-6.026613519644288e-5 
-0.001686280087767367 
0.05186973200151555 
4.3445534272671995e-6 
2.6551510533607106e-5 
0.0009439733608200114 
-7.839856853627608e-6 
3.524076434664953e-5 
-0.0008698534636267093 
0.06225099964561655 
4.753878409859551e-6 
3.325476557842968e-6 
-2.3815359183068906e-5 
-0.00015246981033462454 
0.00016244310285925452 
7.818490600419633e-5 
-0.0003496574495969761 
2.362739219411756e-5 
4.636454558428934e-6 
2.677424191718231e-7 
-5.944239884104603e-7 
3.6715122439031614e-5 
-0.0015986690845248327 
0.08659566618189442 
-1.1256666604430259e-10 
-1.1851045786235564e-5 
-0.000422772971983706 
0.0007740324570364882 
3.73359082911216e-5 
0.0003845645138805197 
0.0065274266650550495 
6.50650080562069e-7 
-1.0821714423356271e-5 
-2.561760375567888e-5 
-0.0006312770907430527 
0.0007773004281567619 
-9.383067471680708e-7 
-3.9457662370402794e-5 
0.0007000752011572347 
-5.7170872123134755e-6 
-4.30056740809529e-5 
0.00034163429436721713 
0.11006799647919892 
4.903494230695241e-6 
-9.020953344688217e-6 
0.0006948471580708586 
0.39218075327793844 
-1.2476036796615004e-6 
4.0606111876374034e-5 
0.0001621438099865747 
-2.1303761792772014e-5 
-1.5496255722560131e-6 
8.688118537948284e-6 
-5.807977462089731e-5 
0.0002930662477622244 
-9.680904684350232e-6 
0.000658865727858605 
-6.264486407368368e-5 
7.730300340466516e-6 
-1.6608387921488033e-6 
-1.727018697253304e-5 
4.49441097336818e-5 
-0.0010644084598292478 
-2.371574717898316e-5 
0.000690622678534938 
1.323027424604883e-6 
-6.301954764368995e-6 
0.0028484388790810406 
0.004074847674389543 
-1.7794492226368988e-6 
5.7261054452814144e-5 
-0.0003251426379767651 
-1.9958139511338165e-5 
2.1406932799281445e-5 
-3.423277907172305e-6 
4.6368156198535545e-5 
0.004256988793231668 
0.000816606539583197 
9.020259561732713e-6 
-2.196781959176786e-7 
0.0006798774208259444 
6.642997569948604e-7 
6.128621078765476e-7 
6.428176326224455e-5 
4.232320454619033e-5 
-9.676528077408835e-5 
0.031353448448692 
-1.49483680711148e-5 
0.0001022872064913929 
-1.0306710812713844e-6 
8.902360694507862e-6 
6.857110646746259e-5 
-0.00022787096378002643 
7.771553918964298e-6 
6.388465688173394e-5 
-7.841314040597677e-5 
-1.1505135900154132e-6 
1.5754348830884044e-5 
2.8554264449284636e-5 
-8.04155697217777e-5 
-2.0008151908032123e-6 
-1.291744411806437e-6 
4.757814523055746e-5 
0.018985928983585552 
-2.136914465843197e-6 
-2.282774346786438e-5 
8.024572337308028e-5 
0.2629615932767045 
0.00026765460323047695 
-7.951950394880618e-5 
8.810426429640785e-6 
2.196357233769819e-5 
-9.479101637855667e-5 
0.024008224712923583 
0.0002974665487573305 
-1.96945652781384e-5 
2.142440345203012e-5 
6.166359744321843e-5 
0.05693687092670164 
2.9918733942207324e-7 
-1.9042833097447085e-5 
-0.0004009867889311024 
0.00017692250748365046 
9.457130532865602e-5 
4.1947266994545524e-7 
-6.981887037068373e-6 
0.0002000447568244226 
0.006372014669295628 
1.4785021854811788e-6 
6.113503813296958e-6 
3.6237850376329633e-6 
0.00012090857675124603 
-1.1817075126199565e-5 
-3.6752866760311434e-6 
-6.659501623556307e-6 
-1.4405348442493233e-5 
-1.7513272866112719e-6 
0.00043008525330603427 
-7.924415793586745e-6 
-1.0790165867774307e-5 
-0.0004905262740788926 
1.7979298921641084e-6 
1.0033199909193339e-5 
0.00017632155096177247 
0.018520317909535657 
9.056128300258943e-7 
-3.982664317798521e-6 
2.3974601219568592e-6 
0.00047624578258379326 
0.04211047027073802 
3.198723832064144e-6 
0.2642016481458419 
5.16595655113772e-5 
0.0016632030830852293 
-1.0815127624345947e-5 
0.0002834382029171186 
-3.1051583045098785e-5 
-1.2610308728076908e-7 
-3.7783638010025445e-6 
7.756132354793206e-5 
-0.0015625207885653354 
-1.0587442194956272e-5 
4.306329595568435e-6 
-6.084149907397543e-5 
-0.000525828698114091 
1.6424542419570624e-6 
-9.011490754796518e-7 
-3.144889265691309e-5 
-0.00021985310074888875 
0.0004638618495943296 
5.996273226534364e-5 
0.00014284277879913557 
-4.924824874213638e-7 
5.978815688454574e-6 
3.727354522534501e-5 
-5.43191183447078e-5 
1.9567891789266267e-7 
6.960001470733948e-6 
-2.8849462622043966e-5 
-2.828767739885579e-6 
-1.4129802436183892e-5 
0.005733137270159555 
-3.269931816294084e-6 
-8.378550867547593e-5 
0.1661064336549964 
0.0004539024676729151 
0.04341441806704224 
-3.52949817937179e-7 
2.0672242271734597e-5 
0.00018195713342153674 
0.08174092584590746 
1.5917760183492234e-6 
-1.2464428962189874e-5 
-8.384134630630636e-5 
-0.0006674434277280588 
-3.4827368274147164e-5 
-1.1027831455277898e-5 
-0.00010573899266105003 
0.0013457575977761725 
0.18839494358060294 
-0.00012144120497553473 
0.0004426688126095914 
4.460083079350341e-7 
-2.2251150858180454e-6 
0.0007838118310340951 
-2.5338422903422408e-6 
1.1216687577421203e-5 
-0.0008227957053983896 
0.5621918997541339 
7.836803754110916e-6 
5.859459407923192e-5 
0.0005033274511740007 
-1.033297530507865e-6 
-6.192097040335944e-5 
0.0010975051758949008 
0.019894169595715744 
-1.2889071362473878e-5 
0.00035007156165708475 
0.03735596762394833 
3.433372621154904e-5 
-0.0004730408330257946 
0.013273000657658829 
-2.5314035451074665e-6 
-3.269544218546507e-5 
-4.790356082221508e-6 
-8.715528802302301e-6 
-0.0009719785665174003 
1.450279241873361e-6 
-2.5259785785803586e-5 
-0.0006509416890996761 
0.010900614380284961 
-4.061309343575849e-6 
-1.6413175695760912e-5 
0.001156089903397084 
0.007401032085168699 
2.2724307066949746e-5 
9.259589081185655e-5 
-2.25250160219165e-5 
7.537673456393743e-6 
-1.3268155365617877e-5 
-7.612389286980013e-5 
0.00034705972778541574 
-2.883349533814501e-6 
-8.703486211537287e-6 
-2.795975144192616e-5 
0.00027650767897464495 
0.00035453167078333496 
8.24811222707127e-6 
1.3668896539953346e-5 
-0.0001423688190654291 
0.0015804489984060555 
-0.0010494451962238841 
0.16209796269598303 
2.2224589968472546e-5 
-0.00024045500631681677 
0.00013116774567771382 
-1.6540182258559862e-6 
6.873132296164971e-6 
3.257700625665875e-5 
0.00012485416459297562 
1.0700331721782983e-7 
2.9575743330170773e-6 
-1.5690815039630673e-5 
-0.00020820977454809274 
0.4312183790198908 
0.00047569314028115194 
4.534268852859969e-5 
0.017578827477881507 
0.004305890511190438 
-4.1776944489611556e-5 
-2.966171691080004e-6 
2.5936575827652982e-5 
-0.0007037850208198096 
-5.155608495208752e-7 
-2.6230869395292304e-5 
-3.346199873992001e-7 
9.604281113266645e-5 
0.00011688182846835538 
-8.698904041906426e-6 
-2.488249598449417e-5 
0.00025658034643255074 
0.35802569617619917 
5.3622911109370925e-6 
-2.4587974216439186e-5 
0.00014541276144018086 
4.1578199674439134e-5 
-1.5168048089072827e-6 
-2.8239627623892263e-6 
1.3623513673771487e-5 
2.4986799022283466e-6 
-7.196230539014183e-5 
-3.977095618421776e-5 
9.964516620716003e-6 
-0.000348771515434439 
0.002596648341123805 
5.272052639616847e-6 
0.16204766635670392 
0.07310326373634625 
0.13356526850867692 
1.159891891234888e-5 
-1.6570444418698198e-5 
4.168134885868023e-6 
9.228065965722147e-5 
-6.394499911870042e-5 
-6.440756707138172e-6 
0.016093161222553366 
0.007227815887964428 
0.005602470784430742 
0.00043945097506373687 
0.0016509914499224646 
0.002278449814595768 
3.0609339518249243e-6 
-9.086026157125127e-6 
0.24747756452935227 
0.11240962358143383 
-4.0888035893971896e-5 
7.827131429073711e-6 
-0.0015284262857998363 
0.002593108547169389 
0.0026638063007363814 
0.007225469563351797 
-4.966610841228344e-7 
-1.4825012255326373e-5 
7.109796874617226e-5 
0.00011356929780763273 
0.003351237796541479 
3.6696997021134376e-5 
0.000266188184431321 
0.00013177273005381005 
-0.0004984898254046451 
8.017964377883213e-7 
-7.188683703123184e-6 
6.465301509144762e-6 
7.814867352159659e-6 
-9.231307636230752e-7 
-4.3572790581404455e-6 
1.557495182482147e-5 
-1.733389827900862e-5 
-6.617775041839826e-8 
4.82315724392006e-5 
-7.69722677496831e-5 
0.00015838063931912608 
0.0006320863773278444 
-0.00038177290805969303 
4.624261446878178e-7 
9.98074179506883e-7 
3.3995468697685192e-6 
7.293393992328181e-6 
4.446221343764517e-6 
9.592866499582827e-6 
3.787576866600202e-5 
-0.00026780342540793755 
0.0001078231308929695 
3.4187699178511633e-6 
9.8579575911759e-7 
-1.0017437313936017e-5 
1.0425461182856778e-5 
-1.6774009564706143e-5 
5.983572900315694e-5 
0.0002039995192960877 
-4.226771783699138e-6 
-1.6482423833514223e-8 
7.729180583224481e-7 
-1.6697759394088698e-5 
-4.303394303647784e-6 
-1.5539588177838143e-6 
-7.413328065291058e-6 
-1.0959115175481829e-5 
7.26524716852319e-6 
0.0001235068923440335 
1.0219419292092134e-5 
1.3024141650316554e-5 
0.018054188464618176 
0.010982901841611681 
0.026229364903497733 
3.310332434484485e-5 
-4.785841483074967e-5 
-5.7459167414766816e-5 
-1.8619054775116133e-5 
0.00015683586726056257 
-0.00016280203279161337 
8.839006177544704e-8 
1.7071629413797218e-6 
-1.734192988425342e-6 
1.2666784513827242e-5 
-1.7350755028501066e-5 
-2.4195195635527345e-6 
-9.062258128480248e-6 
1.5552470463800776e-5 
7.050074456311538e-5 
-0.00043927135214187445 
0.00035474746460535255 
-4.3013792742298885e-5 
1.5155064488806077e-6 
7.910930768123732e-6 
1.1840588681866895e-5 
-1.2712665731318972e-6 
-1.3210062744401683e-6 
5.773493091436622e-7 
-2.0458781283655362e-5 
-8.050316590401112e-5 
6.792607256079171e-5 
3.697699331771082e-7 
2.162516327720083e-5 
2.5763312448938345e-5 
2.7127224890729794e-5 
-1.5344124801035083e-6 
-1.487832052039731e-6 
1.5953651393114668e-6 
-0.00043715478466123864 
0.0002601920181362193 
0.00010796322167602555 
2.3084984819477718e-5 
2.6091256496978564e-6 
2.9196769602716365e-7 
6.191608564444822e-5 
-1.373934660308731e-5 
-2.5783759198927403e-6 
4.664138939737038e-6 
-9.700364510703107e-6 
1.3009232364080128e-5 
-1.8837410648194444e-5 
-0.00017894717953021304 
-0.00018131522649584916 
7.068495440350176e-7 
-4.9907733475411775e-6 
9.94530201865073e-6 
-8.330255396311152e-6 
4.154747789444368e-5 
-5.954163250460636e-5 
3.2860901498092865e-5 
-0.00017152229117309607 
-8.14809636345106e-7 
3.771103622355504e-8 
-1.695928701674358e-5 
-1.31384529254985e-6 
9.04281000329937e-6 
3.564242463669728e-6 
4.169585886294044e-5 
3.6608145355553005e-5 
0.004314721178246208 
0.004811449915596706 
-3.730620495347078e-6 
9.965514491586028e-6 
-1.032368587991782e-6 
2.1295444234184162e-5 
4.8659049030104564e-5 
-3.4720954483904755e-5 
0.0007935166728023129 
0.00014022999352807376 
-0.0008265177021746748 
-7.383604240866144e-5 
0.00014485757389906924 
0.0009527544945163419 
-0.00026137600759969915 
0.0006705055968394052 
1.741406270132256e-5 
5.121438800745015e-6 
8.714179861879822e-5 
2.719828445587146e-5 
-0.0004655711431763826 
0.00045552988732204465 
7.947413783459509e-7 
-8.341479148717617e-6 
-1.953366021726501e-5 
-2.6322166402432726e-5 
5.3515546355137915e-5 
0.0001386538403192235 
-0.00027902860687082336 
-6.753421914259244e-5 
0.0013717005913402678 
0.000870470075613593 
0.0005509008007344351 
1.0997039591787442e-6 
-4.5832356856007435e-7 
-3.915565825149178e-6 
2.651108997310061e-6 
-4.852014218416663e-5 
6.366172814674801e-5 
0.00016801661862677307 
-0.00030247476666129186 
-0.00018104528558456884 
-9.080147900310065e-7 
1.5944913017571467e-5 
6.100218494353292e-6 
1.1050241395764681e-5 
-8.625622969031292e-6 
-3.624168972580221e-7 
-5.027385275865083e-6 
-2.0027245487160478e-6 
-5.108566137939309e-6 
-7.76435712358702e-6 
0.0001701513215897537 
-0.00024292691616357296 
-4.1206282898663755e-5 
0.0001557968203180667 
-2.623054345968648e-6 
-7.2030836170703925e-6 
2.7239531316012896e-6 
3.6378463563414374e-6 
-1.3637574609561913e-5 
-6.415872361374804e-5 
0.0001931353939123953 
-0.0003022617579561528 
1.2854818118535688e-5 
-3.0037811814532113e-5 
-4.321547348524819e-6 