# vtk DataFile Version 3.0 
Unstructured Grid 
ASCII 
DATASET UNSTRUCTURED_GRID
POINTS 2173 float 
-0.5 -0.5 0  
0.5 -0.5 0  
0.5 0.5 0  
-0.5 0.5 0  
-0.475 -0.5 0  
-0.45 -0.5 0  
-0.425 -0.5 0  
-0.4 -0.5 0  
-0.375 -0.5 0  
-0.35 -0.5 0  
-0.325 -0.5 0  
-0.3 -0.5 0  
-0.275 -0.5 0  
-0.25 -0.5 0  
-0.225 -0.5 0  
-0.2 -0.5 0  
-0.175 -0.5 0  
-0.15 -0.5 0  
-0.125 -0.5 0  
-0.1 -0.5 0  
-0.075 -0.5 0  
-0.05 -0.5 0  
-0.025 -0.5 0  
-1.3761214e-12 -0.5 0  
0.025 -0.5 0  
0.05 -0.5 0  
0.075 -0.5 0  
0.1 -0.5 0  
0.125 -0.5 0  
0.15 -0.5 0  
0.175 -0.5 0  
0.2 -0.5 0  
0.225 -0.5 0  
0.25 -0.5 0  
0.275 -0.5 0  
0.3 -0.5 0  
0.325 -0.5 0  
0.35 -0.5 0  
0.375 -0.5 0  
0.4 -0.5 0  
0.425 -0.5 0  
0.45 -0.5 0  
0.475 -0.5 0  
0.5 -0.475 0  
0.5 -0.45 0  
0.5 -0.425 0  
0.5 -0.4 0  
0.5 -0.375 0  
0.5 -0.35 0  
0.5 -0.325 0  
0.5 -0.3 0  
0.5 -0.275 0  
0.5 -0.25 0  
0.5 -0.225 0  
0.5 -0.2 0  
0.5 -0.175 0  
0.5 -0.15 0  
0.5 -0.125 0  
0.5 -0.1 0  
0.5 -0.075 0  
0.5 -0.05 0  
0.5 -0.025 0  
0.5 -1.3761214e-12 0  
0.5 0.025 0  
0.5 0.05 0  
0.5 0.075 0  
0.5 0.1 0  
0.5 0.125 0  
0.5 0.15 0  
0.5 0.175 0  
0.5 0.2 0  
0.5 0.225 0  
0.5 0.25 0  
0.5 0.275 0  
0.5 0.3 0  
0.5 0.325 0  
0.5 0.35 0  
0.5 0.375 0  
0.5 0.4 0  
0.5 0.425 0  
0.5 0.45 0  
0.5 0.475 0  
0.475 0.5 0  
0.45 0.5 0  
0.425 0.5 0  
0.4 0.5 0  
0.375 0.5 0  
0.35 0.5 0  
0.325 0.5 0  
0.3 0.5 0  
0.275 0.5 0  
0.25 0.5 0  
0.225 0.5 0  
0.2 0.5 0  
0.175 0.5 0  
0.15 0.5 0  
0.125 0.5 0  
0.1 0.5 0  
0.075 0.5 0  
0.05 0.5 0  
0.025 0.5 0  
1.3761214e-12 0.5 0  
-0.025 0.5 0  
-0.05 0.5 0  
-0.075 0.5 0  
-0.1 0.5 0  
-0.125 0.5 0  
-0.15 0.5 0  
-0.175 0.5 0  
-0.2 0.5 0  
-0.225 0.5 0  
-0.25 0.5 0  
-0.275 0.5 0  
-0.3 0.5 0  
-0.325 0.5 0  
-0.35 0.5 0  
-0.375 0.5 0  
-0.4 0.5 0  
-0.425 0.5 0  
-0.45 0.5 0  
-0.475 0.5 0  
-0.5 0.475 0  
-0.5 0.45 0  
-0.5 0.425 0  
-0.5 0.4 0  
-0.5 0.375 0  
-0.5 0.35 0  
-0.5 0.325 0  
-0.5 0.3 0  
-0.5 0.275 0  
-0.5 0.25 0  
-0.5 0.225 0  
-0.5 0.2 0  
-0.5 0.175 0  
-0.5 0.15 0  
-0.5 0.125 0  
-0.5 0.1 0  
-0.5 0.075 0  
-0.5 0.05 0  
-0.5 0.025 0  
-0.5 1.3761214e-12 0  
-0.5 -0.025 0  
-0.5 -0.05 0  
-0.5 -0.075 0  
-0.5 -0.1 0  
-0.5 -0.125 0  
-0.5 -0.15 0  
-0.5 -0.175 0  
-0.5 -0.2 0  
-0.5 -0.225 0  
-0.5 -0.25 0  
-0.5 -0.275 0  
-0.5 -0.3 0  
-0.5 -0.325 0  
-0.5 -0.35 0  
-0.5 -0.375 0  
-0.5 -0.4 0  
-0.5 -0.425 0  
-0.5 -0.45 0  
-0.5 -0.475 0  
-0.002115384 -0.00023065208 0  
-0.20714286 -0.20714286 0  
0.20714286 -0.20714286 0  
0.20714286 0.20714286 0  
-0.20714286 0.20714286 0  
-0.28155318 -0.0017231192 0  
0.0017231192 -0.28155318 0  
0.28155318 0.0017231192 0  
-0.0017231192 0.28155318 0  
0.3319978 -0.33098683 0  
0.33098683 0.3319978 0  
-0.3319978 0.33098683 0  
-0.33098683 -0.3319978 0  
-0.14015679 -0.06698606 0  
0.06698606 -0.14015679 0  
0.14015679 0.06698606 0  
-0.06698606 0.14015679 0  
-0.1387125 -0.34573975 0  
0.34573975 -0.1387125 0  
0.1387125 0.34573975 0  
-0.34573975 0.1387125 0  
0.14046866 -0.34602854 0  
0.34602854 0.14046866 0  
-0.14046866 0.34602854 0  
-0.34602854 -0.14046866 0  
-0.05869875 -0.16617337 0  
0.18217777 -0.061504476 0  
0.062312964 0.18362015 0  
-0.18362015 0.062312964 0  
-0.034321424 -0.38563195 0  
0.38563195 -0.034321424 0  
0.034321424 0.38563195 0  
-0.38563195 0.034321424 0  
0.39586002 -0.2428538 0  
0.2428538 0.39586002 0  
-0.39586002 0.2428538 0  
-0.2428538 -0.39586002 0  
0.23688246 -0.38952246 0  
0.38952246 0.23688246 0  
-0.23688246 0.38952246 0  
-0.38952246 -0.23688246 0  
-0.24287231 -0.09948847 0  
0.09948847 -0.24287231 0  
0.24287231 0.09948847 0  
-0.09948847 0.24287231 0  
-0.11560815 -0.24300627 0  
0.24300627 -0.11560815 0  
0.11560815 0.24300627 0  
-0.24300627 0.11560815 0  
-0.40192315 -0.4008276 0  
0.4008276 -0.40192315 0  
0.40192315 0.4008276 0  
-0.4008276 0.40192315 0  
0.06409326 -0.40289903 0  
0.40289903 0.06409326 0  
-0.06409326 0.40289903 0  
-0.40289903 -0.06409326 0  
0.2962961 -0.23982804 0  
0.23982804 0.2962961 0  
-0.2962961 0.23982804 0  
-0.23982804 -0.2962961 0  
-0.28087237 -0.21196799 0  
0.21196799 -0.28087237 0  
0.28087237 0.21196799 0  
-0.21196799 0.28087237 0  
-0.0901279 0.007867504 0  
-0.05002927 -0.07494272 0  
0.0873353 -0.009871756 0  
0.0071518295 0.09216282 0  
-0.14120433 -0.1484696 0  
-0.14581114 0.13960092 0  
0.1458264 -0.14505939 0  
0.13960092 0.14581114 0  
0.41838804 -0.3182741 0  
0.3182741 0.41838804 0  
-0.41838804 0.3182741 0  
-0.3182741 -0.41838804 0  
0.32118136 -0.41712493 0  
0.41712493 0.32118136 0  
-0.32118136 0.41712493 0  
-0.41712493 -0.32118136 0  
-0.19707234 -0.014843048 0  
0.018050108 -0.20183705 0  
0.19707234 0.014843048 0  
-0.014843048 0.19707234 0  
-0.10938372 -0.41847488 0  
0.41847488 -0.10938372 0  
0.10938372 0.41847488 0  
-0.41847488 0.10938372 0  
0.15773043 -0.4267032 0  
0.4267032 0.15773043 0  
-0.15773043 0.4267032 0  
-0.4267032 -0.15773043 0  
-0.3204562 -0.07174808 0  
0.07174808 -0.3204562 0  
0.3204562 0.07174808 0  
-0.07174808 0.3204562 0  
0.02801032 -0.07269879 0  
-0.31817523 0.069836795 0  
-0.069836795 -0.31817523 0  
0.31817523 -0.069836795 0  
0.069836795 0.31817523 0  
0.43106207 -0.17757268 0  
0.17757268 0.43106207 0  
-0.43106207 0.17757268 0  
-0.17757268 -0.43106207 0  
0.0703783 0.071201205 0  
-0.051593844 0.064346604 0  
0.099701226 -0.08333426 0  
0.2863281 -0.17248559 0  
0.17248559 0.2863281 0  
-0.2863281 0.17248559 0  
-0.17248559 -0.2863281 0  
-0.2341888 0.04979648 0  
-0.049194112 -0.231281 0  
0.23358595 -0.04946041 0  
0.04979648 0.2341888 0  
-0.009939441 -0.13691185 0  
-0.26560438 -0.17864102 0  
0.17864102 -0.26560438 0  
0.26560438 0.17864102 0  
-0.17864102 0.26560438 0  
0.013302229 -0.43510666 0  
0.43510666 0.013302229 0  
-0.013302229 0.43510666 0  
-0.43510666 -0.013302229 0  
0.09432827 0.114700764 0  
-0.11539384 0.093188405 0  
-0.3413634 -0.005100272 0  
0.005100272 -0.3413634 0  
0.3413634 0.005100272 0  
-0.005100272 0.3413634 0  
-0.19817708 -0.3508856 0  
0.3508856 -0.19817708 0  
0.19817708 0.3508856 0  
-0.3508856 0.19817708 0  
-0.34100306 -0.27216324 0  
0.27216324 -0.34100306 0  
0.34100306 0.27216324 0  
-0.27216324 0.34100306 0  
-0.20269383 -0.14403741 0  
0.14393912 -0.2028372 0  
0.2026342 0.14393856 0  
-0.14393856 0.2026342 0  
-0.1030633 -0.10524017 0  
-0.4394695 -0.104853734 0  
0.104853734 -0.4394695 0  
0.4394695 0.104853734 0  
-0.104853734 0.4394695 0  
-0.44156647 -0.44156647 0  
0.44156647 -0.44156647 0  
0.44156647 0.44156647 0  
-0.44156647 0.44156647 0  
-0.2683254 -0.44465622 0  
0.44465622 -0.2683254 0  
0.2683254 0.44465622 0  
-0.44465622 0.2683254 0  
0.2654342 -0.4435478 0  
0.4435478 0.2654342 0  
-0.2654342 0.4435478 0  
-0.4435478 -0.2654342 0  
-0.27373606 -0.34534052 0  
0.34534052 -0.27373606 0  
0.27373606 0.34534052 0  
-0.34534052 0.27373606 0  
-0.05307205 -0.4481981 0  
0.4481981 -0.05307205 0  
0.05307205 0.4481981 0  
-0.4481981 0.05307205 0  
-0.35614902 -0.19390328 0  
0.19390328 -0.35614902 0  
0.35614902 0.19390328 0  
-0.19390328 0.35614902 0  
-0.14022674 -0.012452113 0  
0.14171903 0.011271359 0  
-0.01125192 0.14089845 0  
-0.19556868 -0.06932378 0  
0.070511825 -0.19668652 0  
0.19556868 0.06932378 0  
-0.06932378 0.19556868 0  
-0.24951252 -0.039742906 0  
0.04037078 -0.2503529 0  
0.24951252 0.039742906 0  
-0.039742906 0.24951252 0  
0.44100407 -0.36164257 0  
0.36164257 0.44100407 0  
-0.44100407 0.36164257 0  
-0.36164257 -0.44100407 0  
-0.4451273 -0.36589316 0  
0.36589316 -0.4451273 0  
0.4451273 0.36589316 0  
-0.36589316 0.4451273 0  
0.1121834 -0.30242515 0  
0.30242515 0.1121834 0  
-0.1121834 0.30242515 0  
-0.30242515 -0.1121834 0  
-0.115146436 -0.19087775 0  
0.19190264 -0.11309679 0  
0.11520548 0.19263776 0  
-0.19263776 0.11520548 0  
-0.08287991 -0.37025127 0  
0.37025127 -0.08287991 0  
0.08287991 0.37025127 0  
-0.37025127 0.08287991 0  
0.23791528 -0.24381089 0  
0.24381089 0.23791528 0  
-0.23791528 0.24381089 0  
-0.24381089 -0.23791528 0  
-0.44626984 -0.21174923 0  
0.21174923 -0.44626984 0  
0.44626984 0.21174923 0  
-0.21174923 0.44626984 0  
0.35174853 -0.37705234 0  
0.37705234 0.35174853 0  
-0.35174853 0.37705234 0  
-0.37705234 -0.35174853 0  
-0.048605647 -0.023262763 0  
-0.1551113 -0.21381997 0  
0.21381997 -0.1551113 0  
0.1551113 0.21381997 0  
-0.21381997 0.1551113 0  
-0.29403278 -0.30027482 0  
0.30027482 -0.29403278 0  
0.29403278 0.30027482 0  
-0.30027482 0.29403278 0  
0.12173745 -0.390654 0  
0.390654 0.12173745 0  
-0.12173745 0.390654 0  
-0.390654 -0.12173745 0  
-0.12236246 -0.2979882 0  
0.2979882 -0.12236246 0  
0.12236246 0.2979882 0  
-0.2979882 0.12236246 0  
-0.0945969 -0.046371013 0  
0.035276897 -0.027358124 0  
-0.0076714605 0.051946 0  
-0.30809116 -0.17165439 0  
0.17165439 -0.30809116 0  
0.30809116 0.17165439 0  
-0.17165439 0.30809116 0  
-0.16592422 -0.10879113 0  
0.10700909 -0.1687818 0  
0.16864619 0.10664837 0  
-0.10664837 0.16864619 0  
-0.16784625 -0.38069874 0  
0.38069874 -0.16784625 0  
0.16784625 0.38069874 0  
-0.38069874 0.16784625 0  
-0.4563872 -0.05993889 0  
0.05993889 -0.4563872 0  
0.4563872 0.05993889 0  
-0.05993889 0.4563872 0  
0.31103167 -0.37412483 0  
0.37412483 0.31103167 0  
-0.31103167 0.37412483 0  
-0.37412483 -0.31103167 0  
-0.3909646 -0.012754724 0  
0.012754724 -0.3909646 0  
0.3909646 0.012754724 0  
-0.012754724 0.3909646 0  
0.44915667 -0.21679194 0  
0.21679194 0.44915667 0  
-0.44915667 0.21679194 0  
-0.21679194 -0.44915667 0  
0.045831423 0.12033131 0  
-0.12662303 0.045442794 0  
-0.3107799 -0.37355793 0  
0.37355793 -0.3107799 0  
0.3107799 0.37355793 0  
-0.37355793 0.3107799 0  
0.04152367 0.021693805 0  
-0.08040017 -0.2675595 0  
0.26794365 -0.08044455 0  
0.080500565 0.2680441 0  
-0.2680441 0.080500565 0  
-0.13753757 -0.45578164 0  
0.45578164 -0.13753757 0  
0.13753757 0.45578164 0  
-0.45578164 0.13753757 0  
-0.05507968 -0.12135967 0  
0.14172421 -0.09428923 0  
0.2571752 -0.19664502 0  
[...]
POINT_DATA 2173 
SCALARS T float 
LOOKUP_TABLE default 
-9.983743065200003e-18 
-1.7970713084252592e-22 
3.1082289385846847e-20 
-6.871002218774762e-18 
1.414104623914702e-16 
7.390235734570171e-17 
-7.027087156260417e-16 
3.1851374918442687e-16 
1.4271196763664584e-16 
2.62606258474576e-16 
4.48387777396123e-16 
4.612127425940109e-16 
9.036883808375206e-16 
-7.084188847955385e-16 
5.985745093170472e-16 
8.169910841285759e-17 
9.022318979647022e-17 
5.1554131615082666e-17 
-1.4473257973462925e-16 
9.25015108748331e-17 
-1.21212347944157e-16 
4.8388806823815396e-17 
3.2997119749344114e-17 
-7.467635024193916e-17 
6.239754448783331e-17 
-4.65935962035412e-17 
4.433427474256609e-18 
1.1339094836614492e-19 
-2.1035230859623837e-19 
-7.509634755962515e-19 
-7.875822071494789e-20 
-9.585876561128245e-20 
-5.481134539710959e-20 
-1.9496864571122297e-20 
-1.1501704347354079e-20 
-2.412567718010631e-21 
-2.1009193810358587e-21 
-2.025253076447208e-21 
-3.982681201102102e-22 
-3.4631744770886333e-22 
4.6270349591343755e-21 
-1.9589758005030558e-21 
-2.2482408875991797e-21 
1.6730608973138438e-21 
3.4347422404437715e-21 
-1.0365276292723176e-20 
6.481871979459718e-21 
6.119997810562907e-22 
7.800995425432159e-21 
-2.2617982353173805e-20 
5.671274868076169e-20 
-1.1321073666835023e-19 
1.5296883426997697e-19 
-1.6241616057663468e-19 
-9.975533822854152e-20 
4.606667852369452e-19 
-1.4230947738676022e-18 
2.6738378901461322e-18 
-3.01300381303828e-18 
2.6363083989664467e-18 
-1.8297081449219997e-18 
5.28293141804704e-19 
-2.3604044515456575e-18 
4.4357359794160525e-18 
-7.168200030302648e-18 
7.089378217702215e-18 
-8.069764855339522e-18 
6.662167498502599e-18 
-2.4360468750172463e-18 
-9.199835374886388e-19 
6.239335417066486e-18 
-1.0494063864746973e-17 
1.2604424248098477e-17 
-1.2379019434595615e-17 
-1.5458966559766012e-17 
2.8894403974552975e-19 
-1.1004561847641462e-17 
-4.290181154787728e-18 
-5.4300004459696795e-18 
1.2270621193989841e-17 
-5.435132598170593e-18 
-7.603261140537169e-18 
7.06936375213931e-18 
4.7685725730157395e-18 
-1.8795232961512547e-17 
8.71395495095842e-18 
1.246570603209205e-18 
2.4766826251004506e-18 
-1.0276670924812893e-17 
1.733589030442662e-17 
-2.679454635365731e-17 
4.687122795094374e-17 
-7.524537988832223e-17 
2.6649004458279722e-17 
4.427276370718747e-17 
-1.5475525180537237e-16 
2.9130444076846127e-16 
-3.174826788881672e-16 
2.837401597224572e-16 
-9.230039342362361e-17 
-1.2274360157572833e-16 
-5.396160679888928e-17 
1.4711244669980116e-16 
-2.0580942485875918e-16 
1.824389901309543e-16 
-1.8869760312217938e-16 
-1.6671356266508293e-16 
1.0878326558141328e-16 
-8.66293816176162e-17 
-1.4886791545325835e-16 
5.9945618625077e-17 
-1.3283201160551882e-16 
-6.237181688053585e-16 
-1.4038638100978903e-16 
-1.0773584189326557e-16 
1.1186780802122498e-16 
2.4063540342922443e-17 
3.5806843351919455e-17 
-7.914552962550646e-17 
8.702662280435893e-18 
6.231746756100891e-17 
-7.34752339293515e-17 
-2.8335589974046153e-18 
-5.321644177138104e-17 
-3.461133329678393e-17 
-4.3543278010562287e-17 
2.892762314558829e-16 
8.327449178687007e-17 
2.8409291938295893e-16 
-2.817244377812843e-16 
1.1561440660782587e-16 
9.163715504150488e-18 
4.420823795599848e-16 
-5.674266538743014e-16 
2.2866079283991677e-16 
4.96569428866256e-16 
-9.62730416301817e-16 
1.1542530313172307e-15 
-2.773561209430139e-16 
-1.2461426855959985e-15 
7.791842151017982e-16 
-5.309681563537177e-16 
5.016953504638139e-16 
8.928052358448596e-17 
1.3684433994620709e-16 
-8.482126611174506e-16 
5.214616392209228e-16 
-9.916740299517433e-16 
3.488031162651922e-16 
-1.8542758047920742e-15 
7.23155981743595e-16 
1.2946885636447038e-15 
1.0228932527223982e-15 
-5.668145745254109e-17 
1.1234035499420142e-15 
3.822615011215596e-16 
1.1480241158906267e-18 
4.4027298428551626e-16 
2.4007296871835984e-17 
-1.7743713345599174e-16 
2.9161105965203427e-6 
0.012879807949577302 
1.1231589683582217e-7 
-3.351935618993501e-5 
0.0011172106108666784 
0.0007534881202956534 
0.22009356856873852 
-2.2569864113766193e-6 
7.6033535727455114e-6 
7.877412805196156e-10 
-3.2246507090300663e-6 
-0.00010281536150767058 
0.00032286129896588056 
0.0002892377355994735 
0.0017043416011282837 
3.874866850868459e-6 
-0.00029841483033293066 
0.02425941527622209 
1.3506855221172874e-7 
3.4868798615296166e-5 
-0.0005127283690698449 
-1.6226696527095085e-5 
7.551820449162851e-6 
6.655257647524945e-5 
0.003579031999881488 
0.2525308379517106 
-1.214123844514067e-7 
-9.810289259334527e-6 
0.000261811740590521 
0.005307524682244499 
-1.5193996500747774e-6 
-6.539067544907051e-6 
-0.0005218818694315275 
-5.834752213643681e-8 
-7.960307745141789e-6 
8.611096889608447e-5 
-0.0016164616966772632 
1.3722689443925451e-8 
7.150136243641285e-7 
-9.530978138385258e-7 
0.0010636048306846531 
-0.0008107091015176674 
0.002064939774979006 
1.4281646583873033e-6 
-7.802975527871908e-5 
0.5416241610286361 
1.111369889908957e-7 
1.4044373844472487e-5 
-0.00152771659878781 
0.0012463163973531503 
-3.3924993551177344e-9 
-8.519409573814293e-6 
0.00026113572959384526 
-0.00014163851180009468 
-3.592699731772397e-6 
1.7953531451337357e-5 
0.00024452831931149943 
-1.3312855133640565e-8 
-3.0354882444714493e-5 
0.0007428347170631709 
0.00100405985700765 
0.004005672078066296 
-2.2475361079997208e-7 
-2.0023277430627616e-5 
0.0005333064348736742 
-0.0015125531803380963 
0.00188306963664882 
-1.7739961629050339e-6 
7.902701773361392e-5 
0.05128999538965731 
-0.0008213325939999612 
-3.4434408243659273e-6 
7.028046338035798e-6 
-5.389883227739182e-9 
-1.1336385790953021e-5 
-5.3067708795451855e-5 
0.0006539784391762878 
-1.2105497552021482e-9 
-1.3592071342518366e-5 
7.701262094592201e-5 
0.0006982350648026676 
0.0006372563586993798 
0.1299398191196933 
4.938505552226014e-7 
-0.00018167696863216433 
9.20476229158398e-5 
3.436843291925858e-8 
-9.497312156724886e-6 
-0.0006035569205460749 
-2.85832564731092e-6 
-1.9983074785579761e-7 
-0.00011939910858778403 
0.0015550327754683955 
-0.0010977525872442745 
0.0033920599197724915 
1.1903118918672977e-5 
0.0002560017308793019 
0.00012171943232473948 
-0.0008899039692025803 
0.22581593940095604 
1.1544980733715966e-7 
8.663241410580524e-5 
-1.4149607737290554e-7 
-2.8129795392484005e-5 
-0.00017370885253110762 
-0.0005089305358652367 
-1.5842291798600027e-7 
-2.1934891386484025e-5 
3.1464251459349343e-6 
1.3587216276801125e-8 
2.0678967795618077e-5 
-0.001729468163357879 
0.04799053317701924 
-0.00035123815058444116 
0.7909925962216852 
-3.6855470958952147e-7 
2.384291235408526e-5 
0.04130349940925201 
0.0009886251857524134 
-5.56376361169173e-7 
-1.6816365430393512e-5 
0.00041996060637169036 
-0.0001895746112128228 
3.1830476630808586e-7 
-4.006039289898167e-5 
-0.00017472537876081512 
-4.625679612300577e-6 
0.00018364956946737154 
-0.0019381135680091742 
0.030943077964097208 
6.662908259403453e-7 
1.941218302065203e-5 
0.0016107967130789948 
4.353536966104737e-8 
8.10904984195817e-6 
1.2273176695223849e-5 
0.0023294000296756427 
1.0482428313167868e-8 
-9.390964696328229e-6 
1.0442659998682886e-5 
0.002173674118061158 
1.2016184337313671e-5 
-1.9011616044977232e-5 
-0.00024272032878194685 
0.010796827021071759 
0.00022327659154456112 
-2.7674730667749743e-6 
-5.339141524343036e-6 
-7.43084366027895e-6 
0.0004581907520846727 
1.207710755359052e-9 
-1.0196664481976708e-6 
0.00023291212400891644 
-0.0003679624592155268 
2.542913524568252e-8 
1.0206218637819042e-6 
0.00012396480154961662 
3.7022708763868776e-9 
1.1681736059285586e-8 
-0.0002464681939766271 
0.0018814545503064402 
0.000416366310211344 
2.7046464377671694e-8 
2.397169270950682e-6 
0.00023612764549994333 
-1.5014150685749347e-5 
-9.574359196079847e-7 
-5.937395739857194e-5 
-0.0011030847574392238 
0.0004082681754947967 
-9.101123457406712e-7 
-2.3026795693969022e-5 
0.0005945929054399729 
0.00023956356874485398 
2.1591452773445095e-6 
-0.00010329044864143888 
0.0005073227350440557 
0.008700186423536191 
-3.194600953344012e-6 
4.2359422280963685e-6 
-0.0010972346242751725 
0.07672624575303355 
-2.6871050162969805e-7 
0.00010676889219799776 
1.8373796776108132e-9 
3.6012208069153748e-6 
-3.6600950041247564e-5 
0.0009566420760869107 
0.0008922217356261277 
2.122722933781394e-9 
3.6061689606028654e-7 
0.00027512426503650237 
0.00014885073597182977 
-1.7802260086695616e-5 
0.0001944592999071881 
0.0005847893546364874 
0.31320227513231164 
-5.587898451402378e-8 
-4.4583777462788386e-5 
-0.0006903572434589012 
0.018011666266523996 
8.553725642599678e-7 
0.00012881600371807603 
-0.0009290706268071334 
-2.2454071589571367e-8 
1.2131102446608223e-5 
-0.0008288721658530724 
-0.004623074003345741 
0.0004639301254919362 
-5.085183893792187e-9 
-7.47890134173517e-7 
-1.9110104060104644e-5 
1.8590094632655215e-9 
4.6349979716789994e-6 
0.0002065330875740661 
-0.0005098713082195793 
4.328387403990928e-5 
0.14196984170760235 
-5.372787566421813e-8 
-2.6568272945901504e-5 
0.0006253194427171735 
-0.0017149517981649987 
2.5510100816989715e-8 
1.408388802865263e-5 
0.0004534355840191797 
-3.2895040915927855e-5 
-2.572566863902917e-7 
-4.084723359697499e-5 
7.123606489550987e-5 
0.2044303229067865 
-3.21459922795574e-10 
7.077470853193645e-5 
0.00015576839819500502 
-8.580746783893545e-5 
2.466933575127195e-6 
-5.175449410217362e-5 
0.0021449922576183165 
-4.010228947677178e-6 
-2.620429698039279e-5 
0.0005210282351275242 
0.001999812197169402 
0.0001709540997634469 
-7.203631353874279e-6 
0.00018911706467726898 
0.0008801763252834437 
-3.561958701144352e-8 
-1.1578237765444994e-5 
0.00028889207926292496 
0.0004050894479467776 
-4.1950188457231066e-5 
-3.3678763339160454e-6 
-4.447718803594987e-5 
1.8896938945386177e-9 
-1.615145756598843e-6 
-0.00010905881277075033 
0.001232961306410419 
-0.00117008459562169 
0.0005963743950769617 
-9.136125366671033e-6 
5.2213109432989976e-5 
1.5316152171031115e-7 
4.520720360086504e-5 
-0.00046468942630565734 
-0.0005002573606092159 
1.4492348299494463e-5 
0.0007434879554254684 
0.0004563707760888408 
3.29168335594904e-9 
-3.166369426294333e-6 
0.0003314226905313837 
-1.4615536076126226e-6 
0.7118604808412501 
1.131298532950982e-7 
5.691541296812212e-5 
0.0003719047229548921 
8.587469126239564e-5 
-5.248152628680668e-7 
8.950002768509333e-6 
0.00041794967949150064 
0.0370214790965031 
2.9728452024968144e-8 
1.4084835841123043e-8 
-1.3969441899993338e-5 
0.0004076557887417334 
0.021765828141135275 
-5.01514066219308e-7 
0.0001202619993001766 
2.8936783897476237e-5 
-2.3633006680197906e-9 
4.838807027409097e-6 
-0.00021503911504087641 
-6.563708547865552e-9 
4.946767854700855e-6 
-0.00013234344039396992 
0.00020641737395024281 
1.3191730171673836e-9 
5.123999664298753e-6 
0.0003854975449412769 
-3.963069360545184e-5 
-4.462994013203933e-6 
8.606454778353813e-5 
-0.002144048841342138 
0.009436364175135232 
5.992503305799384e-6 
0.00012561210014718939 
-1.926574673110417e-5 
3.769442420598784e-5 
0.0036813886468889745 
0.37976029458942195 
4.750613474491101e-7 
3.9666200154900354e-5 
-0.000629381700797716 
-0.0002570828463134246 
0.4093855387484851 
4.6429828328260144e-7 
0.00014478635665687425 
0.0013639733524736459 
-5.890933392119156e-7 
-7.843409106632449e-6 
0.00015463852522537311 
0.00014892408199181114 
0.030175714240533766 
-1.1608832075393417e-5 
-2.3846035060289776e-6 
9.724647182933072e-5 
0.004903856979509396 
0.12178573591661211 
-1.0545923581436162e-8 
-7.590351494526241e-6 
-9.551462576476574e-5 
0.0015499329816764257 
0.0008909761243534359 
0.0714468084642224 
-1.103789774836162e-6 
-7.762442701417785e-7 
0.00020350693276757436 
-2.2379054809812277e-6 
-6.475239483659782e-5 
8.949325942014358e-5 
0.0028234016838688124 
-4.139909025700366e-6 
-0.00021240506886187663 
-0.001043356403962458 
0.0007778215476107922 
6.578015388811895e-5 
-1.1575215725638116e-5 
0.00038021440353836324 
0.034048117062628926 
0.0004332590782886241 
-4.1581945889950904e-7 
-2.204413916692655e-6 
-1.0707862569398276e-9 
3.6495339202255655e-6 
-0.00014984014804328525 
0.0006808094715337234 
0.005157163688890056 
-1.345168845606508e-7 
-1.2880079177615323e-5 
-0.00020994216946302355 
-1.670889295107113e-5 
9.835411355667368e-7 
0.00015384104300519342 
-8.013741279412975e-5 
-0.00012228388711357335 
2.6827783730702843e-7 
-5.5638503105155565e-6 
0.0003235426519567786 
5.803986158408405e-9 
8.902523205960004e-6 
0.0002128739447133686 
0.00038406310480460366 
1.9671839604567188e-9 
6.607195759140785e-6 
0.00012516422673302538 
0.00011390989341292125 
0.0004968229559311132 
0.4359962509501692 
-9.018718010447156e-7 
0.00019976751376059998 
0.0005081835804151848 
-2.9936126827592893e-6 
-0.0003026557711676076 
8.425146481956557e-6 
0.00033926611866830897 
-0.0002801111817791964 
0.032135072875905606 
1.04129534313971e-6 
2.880324972907321e-5 
-0.00012576286435436105 
0.0012803085494586966 
-3.6486702682554415e-6 
-0.0001634023440600372 
1.2325641382887552e-6 
0.004963796922717365 
2.2829568822319525e-7 
-1.1017203487946884e-5 
0.00027360565486282294 
8.13336666509283e-7 
0.00013655883060927228 
0.0005795920061936175 
-0.00022923993166640768 
-9.225418489244032e-6 
-0.000804925525904909 
0.0007905066780307078 
5.5149759274698985e-6 
-0.00048420510940085684 
-8.168549689657784e-5 
2.8764975628800077e-6 
0.00015094977302209208 
4.893906283564638e-5 
7.866110500109229e-8 
7.400161413290725e-5 
-0.0009820049615497537 
0.16001880937495608 
3.0140412198203933e-6 
-0.0005380684784497843 
6.440819660129681e-9 
-2.768883988526164e-6 
-0.00037823288317301513 
0.00024825917300901973 
-0.0007053527312576722 
0.0789538150654451 
-5.6705974856664966e-8 
1.8586669917629417e-6 
-0.00036821601436191003 
-1.4847192871167352e-7 
8.006473864988963e-6 
0.000192575827522795 
0.7544471359003124 
-2.4103591005242767e-7 
-3.99974887612509e-5 
0.002203008162136346 
6.780764395159041e-8 
2.6518521677976702e-5 
7.809058531995782e-5 
-0.0012146001991485045 
-0.0001648510105657957 
2.8031147009828953e-7 
7.37077025400388e-5 
-0.00041386138137508365 
0.021238074301953496 
1.0435095896040096e-7 
1.0399038837430525e-5 
7.354381507253777e-5 
0.00248515928281957 
-1.4077824838621097e-8 
1.3780105915166159e-5 
-0.0004403016175702851 
7.048968684580577e-6 
3.941346891982205e-5 
2.4558599868381045e-7 
4.687973361831134e-6 
-8.216631108450836e-5 
-0.00046037441409015804 
0.00025037847919739357 
3.41644741249735e-9 
3.8070180538719496e-6 
4.027258228189782e-5 
7.503425981297963e-6 
8.982642108760065e-6 
5.324678432667274e-6 
-0.0006695799435709111 
-5.7737579967963994e-5 
1.2736781118757037e-7 
-2.797369243916911e-5 
-0.0009915551513566979 
0.003956796006145202 
-0.0006450513974213252 
3.4804464120607214e-7 
0.00011637312291630907 
-5.7826581346353216e-5 
0.1418932435900132 
0.0006236353068674314 
8.187720217998483e-11 
-5.304672249568116e-6 
0.00039091024651219787 
-2.03239328388358e-6 
1.7332174943933613e-5 
-0.00018001750607134532 
0.006150335944539139 
0.00030974989123199245 
-2.9825360627684164e-6 
0.0001272910349378123 
-0.0005469457426396427 
0.05246827289197613 
0.2414057166834479 
0.11300499994046707 
-1.420843939134923e-7 
6.019923410858802e-8 
1.9595166297402928e-7 
-1.6620026409134408e-5 
4.408751092476502e-5 
1.0216966013279634e-5 
-0.00014882603620250908 
-0.0003471141083029282 
-0.00015373221162626115 
0.5943247708083742 
0.3813604268408358 
0.5602873858379956 
-3.1146903285718496e-7 
8.579367147925134e-8 
3.0426539398847234e-7 
9.624596414925303e-5 
3.768572586873792e-5 
-6.80942559515585e-5 
0.0006114775098322019 
-0.0013988487609102101 
0.0003171149100543698 
0.04201945745628949 
0.1170919282823103 
-0.0009805421395837216 
0.0013067255949899834 
1.303936175082962e-6 
9.582804388916932e-8 
-2.0880966972511452e-5 
2.2523876617940666e-5 
0.00024836927216687483 
-0.0015324309425644455 
0.8038995247195561 
0.5196512635634757 
3.1911918539422774e-7 
-2.3509073654902115e-7 
3.4953394055078765e-5 
1.0826911921933106e-5 
1.5284341594979558e-5 
-6.332782764216236e-7 
-2.473870081304879e-5 
0.0006576430059078656 
0.010506832788341988 
-0.0007808014202345576 
0.028509853814146266 
0.001224503760795769 
0.0006912173617164526 
0.0006044529464936831 
-0.0007482168912972737 
-7.967505585489338e-11 
-7.790514216316277e-8 
8.548257893884113e-8 
4.0062123165487495e-6 
-8.151137109726822e-6 
4.013185905909407e-6 
-0.0003198149049754819 
5.388718648401872e-5 
0.00020460194881399748 
-0.00041119177863443486 
-4.443387574459777e-6 
1.1239304241133123e-10 
1.4627119128201516e-10 
-1.4990533036088395e-6 
3.518234192102712e-6 
7.74528522833375e-5 
-2.0403092509564273e-6 
-0.00013598399274893308 
0.00018700242172805246 
-6.272173055419331e-9 
4.110747387221695e-9 
-6.489632644682984e-6 
5.039638992159628e-6 
2.875688605809168e-5 
8.327065535283473e-6 
0.0010514465185090076 
0.00029014484985576957 
0.00018732375165722963 
0.33340116031544803 
0.1421068815701565 
0.10661375080203091 
1.8693261671899412e-6 
-8.811127360524527e-7 
1.9917669763253593e-7 
-0.00027152742078884076 
-3.153364899702111e-5 
0.00017432163094062902 
-3.5947180842147945e-8 
8.937587435041594e-11 
2.0130186854987747e-8 
-7.005566124699647e-6 
-3.937603037332995e-6 
5.534521471658209e-6 
-0.00011834111722496614 
-2.9849516393953967e-5 
0.00015089968404420327 
0.0003957816703666788 
-0.00023697985976452594 
0.0002505451203425197 
9.5864845784468e-11 
7.825906521433733e-10 
4.490205890475608e-9 
6.550045315723513e-6 
-1.1229691132780777e-5 
4.86552839881152e-6 
7.456802724038125e-5 
-3.9267645788389144e-6 
0.0003317399863163481 
-0.00029861246531343337 
0.0001832200285721139 
-0.0006382400403776199 
-0.0003536999122278799 
5.758462112708604e-8 
1.5825883956693845e-5 
2.931172457824795e-5 
8.104598891276151e-9 
-5.429640687587521e-6 
0.00011870651784212504 
-0.00018587686970388516 
5.8648156875850926e-9 
2.5697823185856223e-8 
3.130601709770757e-7 
4.330098673027173e-6 
0.00018732626266662906 
2.377522844707482e-5 
0.0001983001196829869 
0.0010688263992574905 
0.0026871757878798625 
-0.003339872978098229 
0.001188877099793679 
-0.0001683478567991668 
0.0004015592429714609 
1.2141205028155527e-9 
-2.703483787698755e-9 
1.0746480768738498e-5 
-5.079477630769976e-6 
-0.00013954176849080015 
6.642632541837881e-5 
0.0005288076140089678 
-0.00021347784039804914 
1.0007064988324475e-8 
-6.878238966265776e-9 
9.32464670962854e-6 
-6.905112199242465e-6 
0.00027224697568108364 
0.00010489408156521202 
-0.002553550606878536 
0.0010230411509799789 
0.20781548492198051 
0.0562877519248082 
1.0364003636301316e-6 
8.849032519772802e-8 
4.0749033330543014e-6 
-4.6622035793575096e-5 
0.001886892629936777 
-0.0007412880911649029 
-0.001795193556762901 
-3.939798666188601e-9 
3.2911519906249727e-9 
1.774759996376655e-8 
-8.467198499151329e-6 
3.4219585437692496e-6 
5.2321208536668085e-6 
-7.109173313902879e-5 
7.936089296404702e-5 
8.742460895385808e-6 
3.4994966442894277e-5 
7.940140016509309e-6 
-0.0001403575718451497 
0.001462420442394138 
-2.7110469452549105e-7 
-2.1130239971760286e-10 
-5.3714097881720105e-5 
-9.451949466129493e-7 
-2.1371269927030054e-5 
0.00019929337615411775 
6.664427638118237e-6 
1.3162507206931993e-5 
-6.494587245038712e-7 
-7.687839429525897e-6 
3.440882783002226e-6 
6.572031667641189e-6 
0.0001305556992609972 
-0.00019563740058845875 
0.00016620726225270084 
0.0005960891394940527 
-0.0006934824668864295 
-0.00026226425585378847 
1.6385941310073348e-9 
-1.5578762066664432e-9 
-5.961408396068159e-10 
8.628843669800953e-6 
-1.0244034836731805e-5 
2.9381025890595033e-7 
-0.000295616253759061 
-3.359216980662492e-5 
0.0004023921592780756 
-6.0200318339898095e-5 
1.1742128875958688e-6 
-0.00039496017746121686 
0.0005602177534371585 
-0.0007983650482810053 
-3.611031423641523e-9 
5.978980770255115e-10 
-1.008036579730015e-5 
8.14878850986184e-6 
0.00030811790363527967 
-0.00031219161810607535 
-0.0002534213496197126 
0.0012267683566400895 
0.00506801728508627 
0.0029256192814170524 
2.9558725681806242e-9 
-1.6637203478298489e-9 
1.660640024927719e-6 
-5.306372559521086e-6 