# vtk DataFile Version 3.0 
Unstructured Grid 
ASCII 
DATASET UNSTRUCTURED_GRID
POINTS 2173 float 
-0.5 -0.5 0  
0.5 -0.5 0  
0.5 0.5 0  
-0.5 0.5 0  
-0.475 -0.5 0  
-0.45 -0.5 0  
-0.425 -0.5 0  
-0.4 -0.5 0  
-0.375 -0.5 0  
-0.35 -0.5 0  
-0.325 -0.5 0  
-0.3 -0.5 0  
-0.275 -0.5 0  
-0.25 -0.5 0  
-0.225 -0.5 0  
-0.2 -0.5 0  
-0.175 -0.5 0  
-0.15 -0.5 0  
-0.125 -0.5 0  
-0.1 -0.5 0  
-0.075 -0.5 0  
-0.05 -0.5 0  
-0.025 -0.5 0  
-1.3761214e-12 -0.5 0  
0.025 -0.5 0  
0.05 -0.5 0  
0.075 -0.5 0  
0.1 -0.5 0  
0.125 -0.5 0  
0.15 -0.5 0  
0.175 -0.5 0  
0.2 -0.5 0  
0.225 -0.5 0  
0.25 -0.5 0  
0.275 -0.5 0  
0.3 -0.5 0  
0.325 -0.5 0  
0.35 -0.5 0  
0.375 -0.5 0  
0.4 -0.5 0  
0.425 -0.5 0  
0.45 -0.5 0  
0.475 -0.5 0  
0.5 -0.475 0  
0.5 -0.45 0  
0.5 -0.425 0  
0.5 -0.4 0  
0.5 -0.375 0  
0.5 -0.35 0  
0.5 -0.325 0  
0.5 -0.3 0  
0.5 -0.275 0  
0.5 -0.25 0  
0.5 -0.225 0  
0.5 -0.2 0  
0.5 -0.175 0  
0.5 -0.15 0  
0.5 -0.125 0  
0.5 -0.1 0  
0.5 -0.075 0  
0.5 -0.05 0  
0.5 -0.025 0  
0.5 -1.3761214e-12 0  
0.5 0.025 0  
0.5 0.05 0  
0.5 0.075 0  
0.5 0.1 0  
0.5 0.125 0  
0.5 0.15 0  
0.5 0.175 0  
0.5 0.2 0  
0.5 0.225 0  
0.5 0.25 0  
0.5 0.275 0  
0.5 0.3 0  
0.5 0.325 0  
0.5 0.35 0  
0.5 0.375 0  
0.5 0.4 0  
0.5 0.425 0  
0.5 0.45 0  
0.5 0.475 0  
0.475 0.5 0  
0.45 0.5 0  
0.425 0.5 0  
0.4 0.5 0  
0.375 0.5 0  
0.35 0.5 0  
0.325 0.5 0  
0.3 0.5 0  
0.275 0.5 0  
0.25 0.5 0  
0.225 0.5 0  
0.2 0.5 0  
0.175 0.5 0  
0.15 0.5 0  
0.125 0.5 0  
0.1 0.5 0  
0.075 0.5 0  
0.05 0.5 0  
0.025 0.5 0  
1.3761214e-12 0.5 0  
-0.025 0.5 0  
-0.05 0.5 0  
-0.075 0.5 0  
-0.1 0.5 0  
-0.125 0.5 0  
-0.15 0.5 0  
-0.175 0.5 0  
-0.2 0.5 0  
-0.225 0.5 0  
-0.25 0.5 0  
-0.275 0.5 0  
-0.3 0.5 0  
-0.325 0.5 0  
-0.35 0.5 0  
-0.375 0.5 0  
-0.4 0.5 0  
-0.425 0.5 0  
-0.45 0.5 0  
-0.475 0.5 0  
-0.5 0.475 0  
-0.5 0.45 0  
-0.5 0.425 0  
-0.5 0.4 0  
-0.5 0.375 0  
-0.5 0.35 0  
-0.5 0.325 0  
-0.5 0.3 0  
-0.5 0.275 0  
-0.5 0.25 0  
-0.5 0.225 0  
-0.5 0.2 0  
-0.5 0.175 0  
-0.5 0.15 0  
-0.5 0.125 0  
-0.5 0.1 0  
-0.5 0.075 0  
-0.5 0.05 0  
-0.5 0.025 0  
-0.5 1.3761214e-12 0  
-0.5 -0.025 0  
-0.5 -0.05 0  
-0.5 -0.075 0  
-0.5 -0.1 0  
-0.5 -0.125 0  
-0.5 -0.15 0  
-0.5 -0.175 0  
-0.5 -0.2 0  
-0.5 -0.225 0  
-0.5 -0.25 0  
-0.5 -0.275 0  
-0.5 -0.3 0  
-0.5 -0.325 0  
-0.5 -0.35 0  
-0.5 -0.375 0  
-0.5 -0.4 0  
-0.5 -0.425 0  
-0.5 -0.45 0  
-0.5 -0.475 0  
-0.002115384 -0.00023065208 0  
-0.20714286 -0.20714286 0  
0.20714286 -0.20714286 0  
0.20714286 0.20714286 0  
-0.20714286 0.20714286 0  
-0.28155318 -0.0017231192 0  
0.0017231192 -0.28155318 0  
0.28155318 0.0017231192 0  
-0.0017231192 0.28155318 0  
0.3319978 -0.33098683 0  
0.33098683 0.3319978 0  
-0.3319978 0.33098683 0  
-0.33098683 -0.3319978 0  
-0.14015679 -0.06698606 0  
0.06698606 -0.14015679 0  
0.14015679 0.06698606 0  
-0.06698606 0.14015679 0  
-0.1387125 -0.34573975 0  
0.34573975 -0.1387125 0  
0.1387125 0.34573975 0  
-0.34573975 0.1387125 0  
0.14046866 -0.34602854 0  
0.34602854 0.14046866 0  
-0.14046866 0.34602854 0  
-0.34602854 -0.14046866 0  
-0.05869875 -0.16617337 0  
0.18217777 -0.061504476 0  
0.062312964 0.18362015 0  
-0.18362015 0.062312964 0  
-0.034321424 -0.38563195 0  
0.38563195 -0.034321424 0  
0.034321424 0.38563195 0  
-0.38563195 0.034321424 0  
0.39586002 -0.2428538 0  
0.2428538 0.39586002 0  
-0.39586002 0.2428538 0  
-0.2428538 -0.39586002 0  
0.23688246 -0.38952246 0  
0.38952246 0.23688246 0  
-0.23688246 0.38952246 0  
-0.38952246 -0.23688246 0  
-0.24287231 -0.09948847 0  
0.09948847 -0.24287231 0  
0.24287231 0.09948847 0  
-0.09948847 0.24287231 0  
-0.11560815 -0.24300627 0  
0.24300627 -0.11560815 0  
0.11560815 0.24300627 0  
-0.24300627 0.11560815 0  
-0.40192315 -0.4008276 0  
0.4008276 -0.40192315 0  
0.40192315 0.4008276 0  
-0.4008276 0.40192315 0  
0.06409326 -0.40289903 0  
0.40289903 0.06409326 0  
-0.06409326 0.40289903 0  
-0.40289903 -0.06409326 0  
0.2962961 -0.23982804 0  
0.23982804 0.2962961 0  
-0.2962961 0.23982804 0  
-0.23982804 -0.2962961 0  
-0.28087237 -0.21196799 0  
0.21196799 -0.28087237 0  
0.28087237 0.21196799 0  
-0.21196799 0.28087237 0  
-0.0901279 0.007867504 0  
-0.05002927 -0.07494272 0  
0.0873353 -0.009871756 0  
0.0071518295 0.09216282 0  
-0.14120433 -0.1484696 0  
-0.14581114 0.13960092 0  
0.1458264 -0.14505939 0  
0.13960092 0.14581114 0  
0.41838804 -0.3182741 0  
0.3182741 0.41838804 0  
-0.41838804 0.3182741 0  
-0.3182741 -0.41838804 0  
0.32118136 -0.41712493 0  
0.41712493 0.32118136 0  
-0.32118136 0.41712493 0  
-0.41712493 -0.32118136 0  
-0.19707234 -0.014843048 0  
0.018050108 -0.20183705 0  
0.19707234 0.014843048 0  
-0.014843048 0.19707234 0  
-0.10938372 -0.41847488 0  
0.41847488 -0.10938372 0  
0.10938372 0.41847488 0  
-0.41847488 0.10938372 0  
0.15773043 -0.4267032 0  
0.4267032 0.15773043 0  
-0.15773043 0.4267032 0  
-0.4267032 -0.15773043 0  
-0.3204562 -0.07174808 0  
0.07174808 -0.3204562 0  
0.3204562 0.07174808 0  
-0.07174808 0.3204562 0  
0.02801032 -0.07269879 0  
-0.31817523 0.069836795 0  
-0.069836795 -0.31817523 0  
0.31817523 -0.069836795 0  
0.069836795 0.31817523 0  
0.43106207 -0.17757268 0  
0.17757268 0.43106207 0  
-0.43106207 0.17757268 0  
-0.17757268 -0.43106207 0  
0.0703783 0.071201205 0  
-0.051593844 0.064346604 0  
0.099701226 -0.08333426 0  
0.2863281 -0.17248559 0  
0.17248559 0.2863281 0  
-0.2863281 0.17248559 0  
-0.17248559 -0.2863281 0  
-0.2341888 0.04979648 0  
-0.049194112 -0.231281 0  
0.23358595 -0.04946041 0  
0.04979648 0.2341888 0  
-0.009939441 -0.13691185 0  
-0.26560438 -0.17864102 0  
0.17864102 -0.26560438 0  
0.26560438 0.17864102 0  
-0.17864102 0.26560438 0  
0.013302229 -0.43510666 0  
0.43510666 0.013302229 0  
-0.013302229 0.43510666 0  
-0.43510666 -0.013302229 0  
0.09432827 0.114700764 0  
-0.11539384 0.093188405 0  
-0.3413634 -0.005100272 0  
0.005100272 -0.3413634 0  
0.3413634 0.005100272 0  
-0.005100272 0.3413634 0  
-0.19817708 -0.3508856 0  
0.3508856 -0.19817708 0  
0.19817708 0.3508856 0  
-0.3508856 0.19817708 0  
-0.34100306 -0.27216324 0  
0.27216324 -0.34100306 0  
0.34100306 0.27216324 0  
-0.27216324 0.34100306 0  
-0.20269383 -0.14403741 0  
0.14393912 -0.2028372 0  
0.2026342 0.14393856 0  
-0.14393856 0.2026342 0  
-0.1030633 -0.10524017 0  
-0.4394695 -0.104853734 0  
0.104853734 -0.4394695 0  
0.4394695 0.104853734 0  
-0.104853734 0.4394695 0  
-0.44156647 -0.44156647 0  
0.44156647 -0.44156647 0  
0.44156647 0.44156647 0  
-0.44156647 0.44156647 0  
-0.2683254 -0.44465622 0  
0.44465622 -0.2683254 0  
0.2683254 0.44465622 0  
-0.44465622 0.2683254 0  
0.2654342 -0.4435478 0  
0.4435478 0.2654342 0  
-0.2654342 0.4435478 0  
-0.4435478 -0.2654342 0  
-0.27373606 -0.34534052 0  
0.34534052 -0.27373606 0  
0.27373606 0.34534052 0  
-0.34534052 0.27373606 0  
-0.05307205 -0.4481981 0  
0.4481981 -0.05307205 0  
0.05307205 0.4481981 0  
-0.4481981 0.05307205 0  
-0.35614902 -0.19390328 0  
0.19390328 -0.35614902 0  
0.35614902 0.19390328 0  
-0.19390328 0.35614902 0  
-0.14022674 -0.012452113 0  
0.14171903 0.011271359 0  
-0.01125192 0.14089845 0  
-0.19556868 -0.06932378 0  
0.070511825 -0.19668652 0  
0.19556868 0.06932378 0  
-0.06932378 0.19556868 0  
-0.24951252 -0.039742906 0  
0.04037078 -0.2503529 0  
0.24951252 0.039742906 0  
-0.039742906 0.24951252 0  
0.44100407 -0.36164257 0  
0.36164257 0.44100407 0  
-0.44100407 0.36164257 0  
-0.36164257 -0.44100407 0  
-0.4451273 -0.36589316 0  
0.36589316 -0.4451273 0  
0.4451273 0.36589316 0  
-0.36589316 0.4451273 0  
0.1121834 -0.30242515 0  
0.30242515 0.1121834 0  
-0.1121834 0.30242515 0  
-0.30242515 -0.1121834 0  
-0.115146436 -0.19087775 0  
0.19190264 -0.11309679 0  
0.11520548 0.19263776 0  
-0.19263776 0.11520548 0  
-0.08287991 -0.37025127 0  
0.37025127 -0.08287991 0  
0.08287991 0.37025127 0  
-0.37025127 0.08287991 0  
0.23791528 -0.24381089 0  
0.24381089 0.23791528 0  
-0.23791528 0.24381089 0  
-0.24381089 -0.23791528 0  
-0.44626984 -0.21174923 0  
0.21174923 -0.44626984 0  
0.44626984 0.21174923 0  
-0.21174923 0.44626984 0  
0.35174853 -0.37705234 0  
0.37705234 0.35174853 0  
-0.35174853 0.37705234 0  
-0.37705234 -0.35174853 0  
-0.048605647 -0.023262763 0  
-0.1551113 -0.21381997 0  
0.21381997 -0.1551113 0  
0.1551113 0.21381997 0  
-0.21381997 0.1551113 0  
-0.29403278 -0.30027482 0  
0.30027482 -0.29403278 0  
0.29403278 0.30027482 0  
-0.30027482 0.29403278 0  
0.12173745 -0.390654 0  
0.390654 0.12173745 0  
-0.12173745 0.390654 0  
-0.390654 -0.12173745 0  
-0.12236246 -0.2979882 0  
0.2979882 -0.12236246 0  
0.12236246 0.2979882 0  
-0.2979882 0.12236246 0  
-0.0945969 -0.046371013 0  
0.035276897 -0.027358124 0  
-0.0076714605 0.051946 0  
-0.30809116 -0.17165439 0  
0.17165439 -0.30809116 0  
0.30809116 0.17165439 0  
-0.17165439 0.30809116 0  
-0.16592422 -0.10879113 0  
0.10700909 -0.1687818 0  
0.16864619 0.10664837 0  
-0.10664837 0.16864619 0  
-0.16784625 -0.38069874 0  
0.38069874 -0.16784625 0  
0.16784625 0.38069874 0  
-0.38069874 0.16784625 0  
-0.4563872 -0.05993889 0  
0.05993889 -0.4563872 0  
0.4563872 0.05993889 0  
-0.05993889 0.4563872 0  
0.31103167 -0.37412483 0  
0.37412483 0.31103167 0  
-0.31103167 0.37412483 0  
-0.37412483 -0.31103167 0  
-0.3909646 -0.012754724 0  
0.012754724 -0.3909646 0  
0.3909646 0.012754724 0  
-0.012754724 0.3909646 0  
0.44915667 -0.21679194 0  
0.21679194 0.44915667 0  
-0.44915667 0.21679194 0  
-0.21679194 -0.44915667 0  
0.045831423 0.12033131 0  
-0.12662303 0.045442794 0  
-0.3107799 -0.37355793 0  
0.37355793 -0.3107799 0  
0.3107799 0.37355793 0  
-0.37355793 0.3107799 0  
0.04152367 0.021693805 0  
-0.08040017 -0.2675595 0  
0.26794365 -0.08044455 0  
0.080500565 0.2680441 0  
-0.2680441 0.080500565 0  
-0.13753757 -0.45578164 0  
0.45578164 -0.13753757 0  
0.13753757 0.45578164 0  
-0.45578164 0.13753757 0  
-0.05507968 -0.12135967 0  
0.14172421 -0.09428923 0  
0.2571752 -0.19664502 0  
[...]
POINT_DATA 2173 
SCALARS T float 
LOOKUP_TABLE default 
3.906092489707669e-20 
-2.4356519846712616e-18 
-2.2521961121235845e-18 
-8.261227029530947e-20 
1.9209673556071874e-18 
9.646398795540319e-18 
1.478199485947329e-17 
1.501664311000707e-17 
2.135320909920842e-17 
2.14723534266638e-17 
1.4593425905228665e-18 
2.105562498314471e-17 
-2.7042552939835638e-17 
2.6649662368538094e-17 
-6.925434263743144e-18 
1.094557594786634e-17 
4.225108636362247e-17 
-4.230142616864367e-17 
8.211049282523451e-17 
-1.0245303296559423e-16 
8.314278990137046e-17 
-2.561955588769172e-17 
-5.239291848436115e-17 
3.1554917921506964e-18 
3.0996313292921526e-17 
-5.5353842248112535e-17 
6.280895511724859e-17 
-3.560292518105903e-17 
-1.2326696203798237e-16 
7.877421489448575e-17 
-2.2671261809514367e-18 
-1.0510933666935198e-16 
9.706806963470035e-17 
-6.102788416354193e-17 
-1.7238277381668865e-16 
7.515992902854699e-17 
-1.2152539425996013e-16 
-8.248786169514818e-17 
-3.039580923665548e-17 
3.6969282476052697e-17 
3.4779651714368194e-17 
3.1071644527573253e-17 
5.667344734086946e-17 
-5.568181734431043e-17 
4.7718943910025e-17 
4.213666293393429e-17 
1.401192644957899e-16 
2.9202775225045227e-17 
-3.5898494167210317e-17 
-8.713586765524751e-17 
3.8421691928487424e-16 
-1.3117124750719115e-16 
3.002142850775173e-16 
-2.6528061679098886e-16 
2.4756785528077195e-16 
-3.975078492357785e-16 
-3.576494949860187e-17 
3.750085661038299e-16 
-8.215330252162509e-16 
7.356337997729779e-16 
-1.9780257592546211e-16 
-6.13325576845356e-16 
4.890000354017287e-16 
-3.4466058352032246e-16 
3.0673568714808e-16 
-5.292459984550328e-17 
1.3550529048972617e-16 
-3.2783545643971183e-16 
4.0396533264654347e-16 
-6.73930132297582e-16 
3.7187018191483327e-16 
-1.047733360642353e-15 
3.002999350419245e-16 
7.117146837012087e-16 
1.0418780882580922e-15 
7.121487415057432e-17 
8.334730978004699e-16 
2.0257819642533928e-16 
-8.113358376431397e-17 
3.984468747072815e-16 
-4.0739451416538155e-17 
-2.5510752280348033e-16 
2.232939750673163e-16 
5.884456079970672e-17 
-6.021584484500775e-16 
2.643074348409712e-16 
1.1560584544017361e-16 
1.6008801213373165e-16 
6.464250635879811e-16 
3.9649542809080403e-16 
1.1637913839380065e-15 
-6.344320370999005e-16 
4.489360113068243e-16 
2.5149486506105313e-17 
1.8721127717095747e-16 
2.316373460982032e-16 
-2.641865593116677e-16 
4.093850053407e-16 
-2.17503785837671e-16 
1.1638958509637248e-16 
1.098373557238354e-16 
-2.158614344576537e-16 
1.8382157057300994e-16 
-1.3274632724134775e-16 
8.332205178990248e-18 
2.9150910538608832e-18 
-5.7128430034031944e-18 
-3.6541292484205946e-18 
-2.406718054780616e-18 
-2.07840937591486e-18 
2.2341046800273843e-18 
-1.4825716380753107e-18 
2.231106273959816e-18 
5.513413198283579e-19 
-7.81310555945093e-19 
-1.811995441032123e-18 
-2.5259434819141706e-18 
-2.311412187294798e-18 
4.2165867329947134e-19 
-1.662982337483805e-18 
1.7472612851198702e-18 
-1.932996949496516e-18 
2.2792827636996287e-18 
-8.257921088926618e-20 
4.1285975518726614e-18 
2.0837215520313677e-18 
3.093237978294023e-19 
5.564577547949232e-19 
1.0786136289533371e-17 
1.8826792940254024e-18 
3.4370407428906384e-18 
-1.0208175912176298e-18 
2.5205076888127083e-18 
5.181869171110804e-19 
4.1829998737110393e-19 
7.334231449608129e-18 
-4.316158577061401e-18 
5.5608149632947035e-18 
-2.660714993417531e-18 
6.4617507619514765e-18 
-1.073256034541695e-17 
1.35536690145314e-17 
-1.6798795189628792e-17 
9.176988385727817e-18 
-4.103172811611856e-18 
3.334766585973327e-18 
1.313913808298981e-18 
1.5645685904971261e-18 
5.052520879536372e-18 
-4.348646534477225e-18 
1.3471658574435516e-17 
8.566620387705006e-18 
-1.2358177521105572e-17 
-6.6336981114742394e-18 
-1.7695442624624074e-17 
-1.493608635294725e-17 
-9.50261257888157e-18 
-1.1517162265069326e-17 
-7.563935920678754e-18 
-1.420980459395688e-18 
7.587927029460461e-6 
-4.068066044401503e-6 
0.0006630724501008525 
0.01123883332219748 
-1.2067340216404506e-5 
-2.980468676605308e-6 
-2.8532053479893874e-5 
0.00026379804634320687 
0.3193494542942115 
-2.773560623507077e-6 
8.754135215532447e-5 
-2.2566628255648457e-6 
-4.555892154083565e-6 
-1.7175386412541322e-5 
-0.0001765597602039737 
0.00082872993661725 
0.010117441258800418 
3.4382012668286976e-5 
6.006195818229146e-5 
0.03188999224842882 
-1.5140757986062008e-7 
-6.299740870329298e-5 
0.0010924810366843625 
4.967719931153966e-5 
1.0239733586740444e-5 
-1.1012706142178155e-5 
0.00020407494201187895 
0.35147626506884394 
1.3351663727088846e-6 
-3.219984367735458e-5 
-0.0002552369889471111 
0.018859428179601644 
6.849123161576267e-6 
-9.545333905418876e-5 
-0.0014085282000583425 
1.4244805328932697e-6 
-2.143722558168287e-5 
-6.215696011792079e-5 
0.00010359602679700379 
-1.583032443200832e-8 
-1.0308177952776328e-5 
-1.5511474039436103e-6 
3.976073331864518e-5 
0.0010868250628531884 
0.018816546037922224 
9.915218268409363e-6 
-0.0009015758292030741 
0.3671853379565284 
-7.016261122252421e-7 
-1.5854011035868882e-5 
0.00010254663689223001 
0.0007359994947042967 
-2.797451085260548e-6 
-1.478289284432996e-5 
-3.779600863727462e-5 
0.00034431561128811674 
-3.95044688171205e-6 
0.00032552333185640556 
0.0016398963196576403 
1.343876697099399e-6 
-1.179257877158183e-5 
-2.8112680358135164e-5 
0.0003123415432346498 
0.0016197311650425793 
-1.8567518298592413e-5 
2.4570554165821245e-6 
-6.151919829441133e-6 
-0.001226182501954341 
0.009067845716328668 
3.3225695951552546e-5 
2.0683859029586154e-6 
-0.00034474561941838207 
0.043818330429039945 
-2.943039789533344e-5 
0.00021479445754895085 
-2.6326207871695448e-6 
-8.563722073433388e-6 
0.0001227176244823259 
0.0009293045251869194 
-2.9879408407546935e-8 
-2.0584649442089365e-5 
-4.292937838997365e-6 
-6.655860294537198e-5 
0.00014311553758786317 
0.21920817626402875 
-3.8125770253293105e-5 
-0.00045350563200465384 
0.0014405015584614193 
2.3878021373514456e-7 
-2.3639919120175323e-5 
0.0004883766888321232 
-1.6389969273285215e-5 
2.321918529170999e-6 
2.1226191947713173e-6 
5.229358064493332e-5 
-0.0005254471044834337 
0.02378918134459075 
2.2915732756425778e-5 
3.611590263867626e-6 
3.114152329171216e-5 
-0.0007497954658487808 
0.24276796377236373 
-0.0001809267901472189 
-0.00045334023827749636 
8.859012597103248e-7 
-2.8298202708981934e-5 
0.0032215101225120104 
0.00029770796047808 
-0.00010012906112828161 
-0.0008855736208221156 
0.04463491073088786 
1.4679957663526008e-6 
2.2295962846862843e-5 
-2.173132219208883e-6 
6.497928493341079e-6 
-9.640209131458968e-5 
0.6335398496259782 
2.5794124006372737e-5 
-5.047041867882022e-6 
0.00029882533332360343 
0.0013149892812125248 
-3.34415991981871e-6 
-5.867860665842269e-5 
-0.0002254723991678 
-6.288109194406508e-5 
1.1181400052284377e-5 
0.02313058939017105 
2.5824581227795553e-5 
-6.213317655442948e-6 
1.0835059089385251e-6 
-0.0010627397389789284 
0.08232729475380948 
3.162699129022617e-6 
4.6791891544735315e-5 
0.0030552031369060124 
-6.60147924817052e-8 
4.797348944406879e-6 
-5.453177851296774e-5 
0.0007278569191117381 
-1.8847858566361122e-7 
-2.28730488938042e-6 
-4.702944230601297e-5 
0.002003619891231024 
0.0008726306460669405 
-5.427979707571078e-6 
-1.6564902721946111e-6 
-3.786751402424269e-5 
0.00022161575799059587 
-3.3039584399333274e-5 
-3.89552456397797e-6 
5.0735784241768376e-5 
0.00033266028992752847 
-1.1944075134162294e-6 
1.3332842672849357e-5 
-0.00010750333748474744 
-0.0005366193818188325 
-1.5180304538572788e-6 
-9.467518198492013e-5 
0.0011165772466759454 
4.7578443485880584e-7 
1.011681334957004e-5 
1.3017330424528716e-5 
8.168172469349683e-5 
0.00017538549271690183 
-1.8903949871622656e-7 
-5.6819748215303184e-5 
-0.0003352409950975839 
0.0003474387394519608 
1.7946066003629514e-6 
-6.622029053791065e-6 
0.00026870606598255575 
0.0008880872038628271 
-1.2565477230349394e-5 
1.4264007759949538e-5 
0.0004540247534134938 
0.0540360681659571 
-1.6679673388804303e-5 
2.989004675832564e-6 
0.00015827493413572659 
0.04268709087914682 
-3.0595686312448863e-6 
6.039527952705269e-5 
0.00011248980624141404 
0.17720118442803745 
-4.5298700277730144e-5 
0.0007618981359052402 
-1.3653904967100662e-6 
-5.239909141189169e-6 
-6.249717675835226e-6 
0.00014314169334333785 
0.0005852576385770607 
-1.6829198100047464e-6 
0.00015932424313234032 
0.0006740655513025793 
0.0050584086224283505 
3.748894713832395e-6 
-2.230226860526316e-5 
-0.0002516457119609656 
0.23720876393850363 
-5.187881579981735e-6 
5.7568376373583885e-5 
-0.0004108251574353088 
0.03458124684944572 
5.907006788720601e-8 
-0.0004916282319063798 
-0.0019309125098662754 
-3.1707618504196384e-6 
5.3033645159696825e-6 
5.651903463040401e-6 
-2.7416625330931544e-5 
0.0004773386989500803 
2.5865041230824887e-6 
-4.093830028307113e-5 
-0.0002464977829957217 
-1.2097355061748919e-6 
-3.4309448109998476e-6 
3.344020017044167e-6 
-1.640386274374633e-5 
0.00022461287855716307 
0.10981903248011798 
-4.250213324776481e-6 
1.2636048231997136e-5 
0.00023860497249480306 
-0.0007705899300755851 
-1.790892445738764e-6 
-7.3087057569869375e-6 
0.0002656216565116468 
-0.00013166143737084162 
-2.6561344585686765e-6 
2.906102605339629e-5 
0.00025285869843596267 
0.17537484478725626 
-3.1165863175642116e-7 
2.334080820496405e-5 
0.00011420669318866905 
0.0003702521149848745 
-1.6747965393985006e-5 
0.00022762944347794404 
0.0019335479246382617 
-4.3720058305609935e-5 
7.192129133837425e-6 
0.00028729709642466914 
0.003389357323129186 
0.0037064696323950174 
-2.4736662847212084e-5 
0.00025202652289439193 
0.0028601847854407766 
-7.896531328365203e-7 
-1.0499706185578736e-5 
-1.26813710373482e-5 
-3.781288676649691e-5 
-0.00012049133826085678 
-9.068432550525483e-5 
0.0005942482456180818 
1.4551810830285204e-7 
3.139755953942558e-6 
-1.810346266387757e-6 
6.832594248264306e-5 
-0.0007826700426493497 
0.00759129532758067 
-0.0002517808944985375 
-0.0002724598710572286 
-7.01036457569732e-7 
1.8503194130476562e-5 
0.04491810152662025 
6.240268525792382e-6 
7.278719950554762e-7 
6.692998292352404e-5 
-0.0001745701419293928 
-1.3954094789327305e-6 
5.33929574969619e-6 
6.593394600603888e-5 
0.0005609268284352632 
0.5268907764120417 
-5.725585736037536e-7 
8.030437231499153e-6 
0.0002817761355802011 
0.00013276707869547944 
-8.574838715825244e-7 
-4.894595951784216e-5 
0.000305517216421181 
0.0003695451316148108 
0.020961397732264714 
4.469986903126589e-7 
-2.146199850484045e-5 
0.00016904974659085451 
1.07177552308184e-6 
-2.4019057636932953e-6 
-0.00016232429992151198 
-6.515480471199895e-5 
-9.97332637684531e-7 
-2.8519146682784194e-5 
0.0002699546948356027 
6.598767504237006e-7 
-1.1873347211121765e-5 
8.014957860570875e-5 
-0.00019287003709379238 
-2.1718523137936805e-6 
-6.5359241715004416e-6 
-0.0010914356301942795 
0.006356505549737767 
6.77225690462741e-6 
1.1796475726160957e-5 
-0.0011753583055458979 
0.0468495123026685 
-2.5502856453051096e-6 
-0.00014655009232125848 
-3.116947628731295e-5 
0.00010970602193109173 
-0.0002645688500471617 
0.41981349095451836 
2.860730926283734e-6 
-1.0791579944465117e-5 
0.00010906855645152126 
1.5598688789659896e-5 
0.4551566457550494 
7.686194516028449e-7 
0.00012342312129532386 
0.0006164858824733677 
3.644584967046332e-7 
-0.0002230640692394517 
-4.9104957368742594e-5 
1.4900180151288787e-5 
0.0021251278092989435 
-7.343931949148383e-5 
-5.7902603049540186e-6 
-1.219152420960053e-5 
-9.637651963378149e-5 
0.0007520303512609238 
-2.030247387131155e-6 
-5.041208358298562e-6 
-1.8480418787830117e-6 
2.445053357171101e-5 
0.0007022638301008074 
0.11841827852193815 
-9.092396862570766e-6 
-3.6580180681174915e-5 
0.0004126196592629419 
-3.846116312967862e-6 
-0.00011479366834863214 
-0.00028889412508848936 
0.01986452665032775 
-4.481763982991365e-6 
-4.07401841529848e-7 
0.00020345735835443278 
0.0008061547044110331 
0.0026277557313291746 
-2.820091972523385e-6 
-1.91747556698324e-5 
6.283985237618127e-5 
0.03148959887599534 
-0.0001067506679334918 
0.0004257941931059242 
-8.927983590984347e-7 
4.582159103106345e-6 
1.547938058255083e-6 
-0.00015989239935673355 
0.011192240216551068 
-1.0918762281628902e-6 
3.758214590930939e-5 
-5.31339180417573e-6 
9.648894989769391e-5 
5.081046737514594e-6 
9.847616658855971e-7 
0.0001429237913509419 
0.00016627535344777844 
3.0271456603666545e-6 
2.01532040083898e-5 
0.00026368593781268894 
-2.766735317920303e-7 
-5.3307341263453565e-6 
5.723174960000784e-5 
7.806086725436108e-5 
8.417091615001401e-8 
-5.111722844995984e-6 
1.0881523026041412e-6 
9.46283344667429e-5 
0.00037201117811027447 
0.4446650763998156 
-2.39994379871418e-6 
0.0007096363143278979 
0.062145177123611825 
0.12281934620902088 
-2.3258325970630297e-7 
2.7805100007662927e-6 
-1.0020401511180714e-5 
-0.00011882471233379307 
0.09637704962447856 
-5.8415629768509704e-6 
-5.501541714231575e-5 
-0.000330879980555894 
0.004638667646161937 
-0.0007641799901575536 
-1.9769165953110608e-5 
0.00028356121993300924 
0.003823690397292852 
-2.2474122987713823e-5 
0.00028902343335428124 
-0.0002744630262593081 
3.3543740578984134e-6 
2.0431707331389456e-5 
0.0018286902720525858 
7.71721456224622e-6 
-0.00023671319151076593 
0.0004624350348521573 
0.00910214478665801 
6.26752226610764e-5 
1.5082510080667519e-5 
-0.0001963234020913329 
7.5871387631911455e-6 
-0.00020025846203934722 
0.12728709977666106 
-1.4580919991725209e-6 
3.579683150407702e-5 
0.0008335694835767792 
0.0007062972091034539 
-0.0002016130957305577 
-0.000654678237980398 
3.684776047593591e-7 
-2.861689866738676e-6 
-7.514608091263135e-6 
7.907480432154548e-6 
-0.00021318666443288705 
0.09170988844208468 
1.3125409407232273e-5 
0.00010615265320360126 
-0.001045060324111832 
-2.692919976987704e-6 
-2.040143007784904e-5 
0.0015076435372400826 
0.5324344621605577 
1.9382202031618367e-6 
0.00019267636759159743 
-0.0008933941680450486 
-5.975960374006539e-7 
7.216267373584435e-6 
3.494711624634251e-5 
-0.0001877250418214365 
-1.708600601746595e-5 
-2.8868532943061633e-7 
-2.4196387626363076e-5 
0.0002739536392899736 
0.024570441498654172 
-2.9036467294468218e-6 
-9.652558666019004e-6 
-0.00024293295355967782 
0.006127952560239624 
-9.066183844565347e-7 
0.010510660217473143 
0.0008405676984264104 
-0.00010139323138090848 
-0.00043434281630133555 
1.0355195264818417e-6 
1.6399099994145095e-6 
4.173628620530151e-7 
2.261225528811065e-5 
0.00022505315371218007 
1.2191886960569814e-6 
-5.606326855906781e-6 
-0.00034476520311771695 
0.0009726348674432852 
0.001217955526619021 
-3.986840647046905e-6 
-0.0002697677006668191 
0.20762344713090675 
-7.202128693510622e-6 
-2.6457053414433308e-5 
6.940624987041114e-5 
-9.666794240686233e-5 
-0.0001336419929443241 
-1.3910680027005804e-6 
-2.956698358963113e-5 
-1.256428440749682e-5 
0.00015802995553856043 
0.00015757490311110376 
-9.434091830022868e-7 
-3.530829231709178e-5 
0.0054512215105638525 
1.550276776552134e-5 
1.6075322360437227e-5 
5.0943979637200275e-5 
-0.0001555903999666986 
0.002168866273465861 
4.290305487357202e-6 
-1.0130873777094281e-5 
3.407628852739986e-5 
2.532607799786918e-5 
-3.226316431267777e-5 
-0.0005624165207797917 
9.792803250911289e-5 
0.049564753509685124 
0.1801314971668521 
0.09647003547491324 
-1.507315584219906e-5 
-1.85963464631921e-6 
-1.457430407682783e-5 
4.252746260920614e-6 
1.252402677406397e-5 
-1.0304386682093077e-5 
0.000238517678078505 
-0.0008366480214793668 
-2.2327310093058122e-7 
0.5454119990289643 
0.40725872063119145 
0.5205429328451906 
1.4051056185613412e-6 
2.2362632438364825e-7 
1.4276713566763312e-6 
-5.6870423993152285e-6 
-1.9390228831521188e-5 
-1.7566393161385756e-5 
-1.40921973769925e-5 
-0.0005422314090358623 
0.0005607890252390295 
0.034835162752967434 
0.10542376679656905 
2.3443121480419258e-6 
-3.449098525999317e-6 
1.7956345172541275e-5 
7.133490572409007e-6 
0.00010197226905803561 
-0.000659749482590329 
0.5972415830613502 
0.4715622370857285 
0.010046590707901171 
0.044507725970652216 
0.015144579249626365 
-5.278110940589836e-6 
3.6597498708827135e-6 
-4.386537154443124e-7 
-6.3234524734053895e-6 
-8.09518419000024e-6 
4.428776025050143e-6 
-1.2781669727548765e-6 
9.745420369755441e-6 
-0.00012647287847851338 
-0.00012845777663733334 
0.00023153046362988015 
0.0006145770370153086 
0.0003645558126235603 
-0.0004582306381282606 
-1.8912284937628314e-6 
-1.26557630645681e-6 
1.773864910126069e-7 
6.621626508186643e-6 
5.97851958460026e-6 
0.00011996178591626777 
-2.8784560720214564e-5 
-0.0003477448699526752 
4.655734486524027e-5 
6.452833854598527e-7 
1.3786964383847573e-6 
6.806548971877566e-6 
8.597029181767748e-6 
-9.315015262116027e-5 
8.912492451433717e-5 
-0.00011314178934054673 
0.00014519528044242222 
-1.7011420746366349e-6 
2.315901060710549e-6 
-1.754113192243054e-6 
-3.960548781627571e-6 
9.943945839631703e-6 
-0.0001264265490375002 
1.6828794338948385e-6 
4.6687392712809505e-5 
0.0004890906310704949 
0.00028036919509596357 
0.0001810208582694527 
0.39972060192539677 
0.22129936159392372 
0.19007328662933656 
-3.9282420339966035e-5 
-2.420934085828262e-5 
0.00016910391957803835 
0.0005420002749434001 
-0.00019967193675143467 
0.00020139386304489403 
1.2205981335917824e-6 
-2.7374891474000818e-6 
4.467068480038851e-6 
-1.2917609376194165e-5 
-8.608223547733459e-6 
7.608558944372687e-6 
-2.644274714789364e-5 
6.048189383680965e-5 
9.431351030677156e-5 
-0.00043564566144015023 
0.00030618711381187955 
-0.00036927018459853854 
-4.925522846559237e-7 
1.653749571945222e-7 
-1.0241161578499386e-6 
5.663016491367163e-6 
-1.1726617924581967e-5 
-5.553963340119241e-6 
1.0716238120041826e-5 
0.0001168966937898063 
-0.00031277369844675293 
1.7283714323173938e-6 
3.964935975353409e-5 
-1.1367107652940151e-5 
4.303887582196865e-7 
-6.9794430870125934e-6 
0.0001114450752215472 
-2.6446423562907703e-5 
0.00020192737266865442 
0.0006116442533595179 
1.6417474926811833e-6 
-8.822869277184957e-7 
4.515239256655769e-6 
1.4292191298372631e-6 
1.4130566112498857e-5 
-1.7469838195959735e-5 
-1.0637621143099742e-5 
5.593892139021348e-6 
3.2931696772174385e-6 
-4.6594731606674244e-5 
2.6577530174985297e-5 
-0.00016512746029855355 
-2.6437804263727324e-5 
1.0066224938105764e-6 
7.423023082655363e-7 
4.476987814788669e-6 
-3.2517521485811053e-6 
0.00012419271626503464 
8.448446458263655e-5 
0.0003726957476061445 
-0.0001864636179890588 
2.506576072979779e-6 
9.462283841501817e-7 
1.3498789167168452e-6 
4.250890198815174e-6 
-1.4706406214812763e-5 
-5.3809904558675284e-5 
-0.0015982061502668946 
0.0007834368410123002 
0.26239949470083074 
0.1107634572590908 
1.3940279684398036e-5 
-6.3689835469905285e-6 
-8.917237201759083e-6 
-5.107146985114764e-5 
-1.13478094043952e-5 
7.887757415985487e-5 
0.000738084210816852 
-0.00036705543068555485 
-0.00012651134288256923 
2.1419953191401954e-6 
9.870761280449474e-7 
-1.3249380206229833e-6 
0.011398197106684712 
0.002181702748959815 
-2.3042935436471282e-5 
-1.9926975923616685e-5 
-0.00013227181085594868 
-1.0100838738133701e-5 
-0.0002890910642528951 
0.0012501568537192401 
3.002698212274001e-7 
-3.048669045613934e-6 
2.0310890388101804e-5 
-4.275532541299226e-5 
4.22826759621226e-5 
0.00042226548159820615 
-0.00036232398586116224 
-0.00027600805714419894 
4.059535782095917e-6 
1.3031956795780784e-5 
-1.3146079578419513e-5 
-4.805519470052328e-6 
6.8094288876231315e-6 
-1.5155478844118672e-6 
-0.0002031010192076168 
3.79533927045622e-5 
7.166819679641367e-5 
0.00010396859614150185 
0.0001405762335567126 
-0.0001875446285464458 
1.366500261393873e-7 
-7.225049651796315e-7 
4.70060666870125e-8 
1.5115765274016081e-5 
-1.8941892900907269e-6 
7.2786985372097715e-6 
4.213254538686454e-6 
5.2749126573460195e-6 
0.00019985197896165934 
-0.00013517769833380248 
0.0004943071680483639 
-8.00145464635599e-5 
1.8640736934390706e-6 
-1.174051192053927e-6 
-4.993769501793962e-6 
1.268396905046055e-5 
-2.2179964419092406e-5 
-6.416732195918974e-6 
-7.128295408779825e-5 
-1.5460660754516356e-5 
-0.0001965856034345116 
0.0005230059260876176 
-3.648209393168135e-6 