# vtk DataFile Version 3.0 
Unstructured Grid 
ASCII 
DATASET UNSTRUCTURED_GRID
POINTS 2173 float 
-0.5 -0.5 0  
0.5 -0.5 0  
0.5 0.5 0  
-0.5 0.5 0  
-0.475 -0.5 0  
-0.45 -0.5 0  
-0.425 -0.5 0  
-0.4 -0.5 0  
-0.375 -0.5 0  
-0.35 -0.5 0  
-0.325 -0.5 0  
-0.3 -0.5 0  
-0.275 -0.5 0  
-0.25 -0.5 0  
-0.225 -0.5 0  
-0.2 -0.5 0  
-0.175 -0.5 0  
-0.15 -0.5 0  
-0.125 -0.5 0  
-0.1 -0.5 0  
-0.075 -0.5 0  
-0.05 -0.5 0  
-0.025 -0.5 0  
-1.3761214e-12 -0.5 0  
0.025 -0.5 0  
0.05 -0.5 0  
0.075 -0.5 0  
0.1 -0.5 0  
0.125 -0.5 0  
0.15 -0.5 0  
0.175 -0.5 0  
0.2 -0.5 0  
0.225 -0.5 0  
0.25 -0.5 0  
0.275 -0.5 0  
0.3 -0.5 0  
0.325 -0.5 0  
0.35 -0.5 0  
0.375 -0.5 0  
0.4 -0.5 0  
0.425 -0.5 0  
0.45 -0.5 0  
0.475 -0.5 0  
0.5 -0.475 0  
0.5 -0.45 0  
0.5 -0.425 0  
0.5 -0.4 0  
0.5 -0.375 0  
0.5 -0.35 0  
0.5 -0.325 0  
0.5 -0.3 0  
0.5 -0.275 0  
0.5 -0.25 0  
0.5 -0.225 0  
0.5 -0.2 0  
0.5 -0.175 0  
0.5 -0.15 0  
0.5 -0.125 0  
0.5 -0.1 0  
0.5 -0.075 0  
0.5 -0.05 0  
0.5 -0.025 0  
0.5 -1.3761214e-12 0  
0.5 0.025 0  
0.5 0.05 0  
0.5 0.075 0  
0.5 0.1 0  
0.5 0.125 0  
0.5 0.15 0  
0.5 0.175 0  
0.5 0.2 0  
0.5 0.225 0  
0.5 0.25 0  
0.5 0.275 0  
0.5 0.3 0  
0.5 0.325 0  
0.5 0.35 0  
0.5 0.375 0  
0.5 0.4 0  
0.5 0.425 0  
0.5 0.45 0  
0.5 0.475 0  
0.475 0.5 0  
0.45 0.5 0  
0.425 0.5 0  
0.4 0.5 0  
0.375 0.5 0  
0.35 0.5 0  
0.325 0.5 0  
0.3 0.5 0  
0.275 0.5 0  
0.25 0.5 0  
0.225 0.5 0  
0.2 0.5 0  
0.175 0.5 0  
0.15 0.5 0  
0.125 0.5 0  
0.1 0.5 0  
0.075 0.5 0  
0.05 0.5 0  
0.025 0.5 0  
1.3761214e-12 0.5 0  
-0.025 0.5 0  
-0.05 0.5 0  
-0.075 0.5 0  
-0.1 0.5 0  
-0.125 0.5 0  
-0.15 0.5 0  
-0.175 0.5 0  
-0.2 0.5 0  
-0.225 0.5 0  
-0.25 0.5 0  
-0.275 0.5 0  
-0.3 0.5 0  
-0.325 0.5 0  
-0.35 0.5 0  
-0.375 0.5 0  
-0.4 0.5 0  
-0.425 0.5 0  
-0.45 0.5 0  
-0.475 0.5 0  
-0.5 0.475 0  
-0.5 0.45 0  
-0.5 0.425 0  
-0.5 0.4 0  
-0.5 0.375 0  
-0.5 0.35 0  
-0.5 0.325 0  
-0.5 0.3 0  
-0.5 0.275 0  
-0.5 0.25 0  
-0.5 0.225 0  
-0.5 0.2 0  
-0.5 0.175 0  
-0.5 0.15 0  
-0.5 0.125 0  
-0.5 0.1 0  
-0.5 0.075 0  
-0.5 0.05 0  
-0.5 0.025 0  
-0.5 1.3761214e-12 0  
-0.5 -0.025 0  
-0.5 -0.05 0  
-0.5 -0.075 0  
-0.5 -0.1 0  
-0.5 -0.125 0  
-0.5 -0.15 0  
-0.5 -0.175 0  
-0.5 -0.2 0  
-0.5 -0.225 0  
-0.5 -0.25 0  
-0.5 -0.275 0  
-0.5 -0.3 0  
-0.5 -0.325 0  
-0.5 -0.35 0  
-0.5 -0.375 0  
-0.5 -0.4 0  
-0.5 -0.425 0  
-0.5 -0.45 0  
-0.5 -0.475 0  
-0.002115384 -0.00023065208 0  
-0.20714286 -0.20714286 0  
0.20714286 -0.20714286 0  
0.20714286 0.20714286 0  
-0.20714286 0.20714286 0  
-0.28155318 -0.0017231192 0  
0.0017231192 -0.28155318 0  
0.28155318 0.0017231192 0  
-0.0017231192 0.28155318 0  
0.3319978 -0.33098683 0  
0.33098683 0.3319978 0  
-0.3319978 0.33098683 0  
-0.33098683 -0.3319978 0  
-0.14015679 -0.06698606 0  
0.06698606 -0.14015679 0  
0.14015679 0.06698606 0  
-0.06698606 0.14015679 0  
-0.1387125 -0.34573975 0  
0.34573975 -0.1387125 0  
0.1387125 0.34573975 0  
-0.34573975 0.1387125 0  
0.14046866 -0.34602854 0  
0.34602854 0.14046866 0  
-0.14046866 0.34602854 0  
-0.34602854 -0.14046866 0  
-0.05869875 -0.16617337 0  
0.18217777 -0.061504476 0  
0.062312964 0.18362015 0  
-0.18362015 0.062312964 0  
-0.034321424 -0.38563195 0  
0.38563195 -0.034321424 0  
0.034321424 0.38563195 0  
-0.38563195 0.034321424 0  
0.39586002 -0.2428538 0  
0.2428538 0.39586002 0  
-0.39586002 0.2428538 0  
-0.2428538 -0.39586002 0  
0.23688246 -0.38952246 0  
0.38952246 0.23688246 0  
-0.23688246 0.38952246 0  
-0.38952246 -0.23688246 0  
-0.24287231 -0.09948847 0  
0.09948847 -0.24287231 0  
0.24287231 0.09948847 0  
-0.09948847 0.24287231 0  
-0.11560815 -0.24300627 0  
0.24300627 -0.11560815 0  
0.11560815 0.24300627 0  
-0.24300627 0.11560815 0  
-0.40192315 -0.4008276 0  
0.4008276 -0.40192315 0  
0.40192315 0.4008276 0  
-0.4008276 0.40192315 0  
0.06409326 -0.40289903 0  
0.40289903 0.06409326 0  
-0.06409326 0.40289903 0  
-0.40289903 -0.06409326 0  
0.2962961 -0.23982804 0  
0.23982804 0.2962961 0  
-0.2962961 0.23982804 0  
-0.23982804 -0.2962961 0  
-0.28087237 -0.21196799 0  
0.21196799 -0.28087237 0  
0.28087237 0.21196799 0  
-0.21196799 0.28087237 0  
-0.0901279 0.007867504 0  
-0.05002927 -0.07494272 0  
0.0873353 -0.009871756 0  
0.0071518295 0.09216282 0  
-0.14120433 -0.1484696 0  
-0.14581114 0.13960092 0  
0.1458264 -0.14505939 0  
0.13960092 0.14581114 0  
0.41838804 -0.3182741 0  
0.3182741 0.41838804 0  
-0.41838804 0.3182741 0  
-0.3182741 -0.41838804 0  
0.32118136 -0.41712493 0  
0.41712493 0.32118136 0  
-0.32118136 0.41712493 0  
-0.41712493 -0.32118136 0  
-0.19707234 -0.014843048 0  
0.018050108 -0.20183705 0  
0.19707234 0.014843048 0  
-0.014843048 0.19707234 0  
-0.10938372 -0.41847488 0  
0.41847488 -0.10938372 0  
0.10938372 0.41847488 0  
-0.41847488 0.10938372 0  
0.15773043 -0.4267032 0  
0.4267032 0.15773043 0  
-0.15773043 0.4267032 0  
-0.4267032 -0.15773043 0  
-0.3204562 -0.07174808 0  
0.07174808 -0.3204562 0  
0.3204562 0.07174808 0  
-0.07174808 0.3204562 0  
0.02801032 -0.07269879 0  
-0.31817523 0.069836795 0  
-0.069836795 -0.31817523 0  
0.31817523 -0.069836795 0  
0.069836795 0.31817523 0  
0.43106207 -0.17757268 0  
0.17757268 0.43106207 0  
-0.43106207 0.17757268 0  
-0.17757268 -0.43106207 0  
0.0703783 0.071201205 0  
-0.051593844 0.064346604 0  
0.099701226 -0.08333426 0  
0.2863281 -0.17248559 0  
0.17248559 0.2863281 0  
-0.2863281 0.17248559 0  
-0.17248559 -0.2863281 0  
-0.2341888 0.04979648 0  
-0.049194112 -0.231281 0  
0.23358595 -0.04946041 0  
0.04979648 0.2341888 0  
-0.009939441 -0.13691185 0  
-0.26560438 -0.17864102 0  
0.17864102 -0.26560438 0  
0.26560438 0.17864102 0  
-0.17864102 0.26560438 0  
0.013302229 -0.43510666 0  
0.43510666 0.013302229 0  
-0.013302229 0.43510666 0  
-0.43510666 -0.013302229 0  
0.09432827 0.114700764 0  
-0.11539384 0.093188405 0  
-0.3413634 -0.005100272 0  
0.005100272 -0.3413634 0  
0.3413634 0.005100272 0  
-0.005100272 0.3413634 0  
-0.19817708 -0.3508856 0  
0.3508856 -0.19817708 0  
0.19817708 0.3508856 0  
-0.3508856 0.19817708 0  
-0.34100306 -0.27216324 0  
0.27216324 -0.34100306 0  
0.34100306 0.27216324 0  
-0.27216324 0.34100306 0  
-0.20269383 -0.14403741 0  
0.14393912 -0.2028372 0  
0.2026342 0.14393856 0  
-0.14393856 0.2026342 0  
-0.1030633 -0.10524017 0  
-0.4394695 -0.104853734 0  
0.104853734 -0.4394695 0  
0.4394695 0.104853734 0  
-0.104853734 0.4394695 0  
-0.44156647 -0.44156647 0  
0.44156647 -0.44156647 0  
0.44156647 0.44156647 0  
-0.44156647 0.44156647 0  
-0.2683254 -0.44465622 0  
0.44465622 -0.2683254 0  
0.2683254 0.44465622 0  
-0.44465622 0.2683254 0  
0.2654342 -0.4435478 0  
0.4435478 0.2654342 0  
-0.2654342 0.4435478 0  
-0.4435478 -0.2654342 0  
-0.27373606 -0.34534052 0  
0.34534052 -0.27373606 0  
0.27373606 0.34534052 0  
-0.34534052 0.27373606 0  
-0.05307205 -0.4481981 0  
0.4481981 -0.05307205 0  
0.05307205 0.4481981 0  
-0.4481981 0.05307205 0  
-0.35614902 -0.19390328 0  
0.19390328 -0.35614902 0  
0.35614902 0.19390328 0  
-0.19390328 0.35614902 0  
-0.14022674 -0.012452113 0  
0.14171903 0.011271359 0  
-0.01125192 0.14089845 0  
-0.19556868 -0.06932378 0  
0.070511825 -0.19668652 0  
0.19556868 0.06932378 0  
-0.06932378 0.19556868 0  
-0.24951252 -0.039742906 0  
0.04037078 -0.2503529 0  
0.24951252 0.039742906 0  
-0.039742906 0.24951252 0  
0.44100407 -0.36164257 0  
0.36164257 0.44100407 0  
-0.44100407 0.36164257 0  
-0.36164257 -0.44100407 0  
-0.4451273 -0.36589316 0  
0.36589316 -0.4451273 0  
0.4451273 0.36589316 0  
-0.36589316 0.4451273 0  
0.1121834 -0.30242515 0  
0.30242515 0.1121834 0  
-0.1121834 0.30242515 0  
-0.30242515 -0.1121834 0  
-0.115146436 -0.19087775 0  
0.19190264 -0.11309679 0  
0.11520548 0.19263776 0  
-0.19263776 0.11520548 0  
-0.08287991 -0.37025127 0  
0.37025127 -0.08287991 0  
0.08287991 0.37025127 0  
-0.37025127 0.08287991 0  
0.23791528 -0.24381089 0  
0.24381089 0.23791528 0  
-0.23791528 0.24381089 0  
-0.24381089 -0.23791528 0  
-0.44626984 -0.21174923 0  
0.21174923 -0.44626984 0  
0.44626984 0.21174923 0  
-0.21174923 0.44626984 0  
0.35174853 -0.37705234 0  
0.37705234 0.35174853 0  
-0.35174853 0.37705234 0  
-0.37705234 -0.35174853 0  
-0.048605647 -0.023262763 0  
-0.1551113 -0.21381997 0  
0.21381997 -0.1551113 0  
0.1551113 0.21381997 0  
-0.21381997 0.1551113 0  
-0.29403278 -0.30027482 0  
0.30027482 -0.29403278 0  
0.29403278 0.30027482 0  
-0.30027482 0.29403278 0  
0.12173745 -0.390654 0  
0.390654 0.12173745 0  
-0.12173745 0.390654 0  
-0.390654 -0.12173745 0  
-0.12236246 -0.2979882 0  
0.2979882 -0.12236246 0  
0.12236246 0.2979882 0  
-0.2979882 0.12236246 0  
-0.0945969 -0.046371013 0  
0.035276897 -0.027358124 0  
-0.0076714605 0.051946 0  
-0.30809116 -0.17165439 0  
0.17165439 -0.30809116 0  
0.30809116 0.17165439 0  
-0.17165439 0.30809116 0  
-0.16592422 -0.10879113 0  
0.10700909 -0.1687818 0  
0.16864619 0.10664837 0  
-0.10664837 0.16864619 0  
-0.16784625 -0.38069874 0  
0.38069874 -0.16784625 0  
0.16784625 0.38069874 0  
-0.38069874 0.16784625 0  
-0.4563872 -0.05993889 0  
0.05993889 -0.4563872 0  
0.4563872 0.05993889 0  
-0.05993889 0.4563872 0  
0.31103167 -0.37412483 0  
0.37412483 0.31103167 0  
-0.31103167 0.37412483 0  
-0.37412483 -0.31103167 0  
-0.3909646 -0.012754724 0  
0.012754724 -0.3909646 0  
0.3909646 0.012754724 0  
-0.012754724 0.3909646 0  
0.44915667 -0.21679194 0  
0.21679194 0.44915667 0  
-0.44915667 0.21679194 0  
-0.21679194 -0.44915667 0  
0.045831423 0.12033131 0  
-0.12662303 0.045442794 0  
-0.3107799 -0.37355793 0  
0.37355793 -0.3107799 0  
0.3107799 0.37355793 0  
-0.37355793 0.3107799 0  
0.04152367 0.021693805 0  
-0.08040017 -0.2675595 0  
0.26794365 -0.08044455 0  
0.080500565 0.2680441 0  
-0.2680441 0.080500565 0  
-0.13753757 -0.45578164 0  
0.45578164 -0.13753757 0  
0.13753757 0.45578164 0  
-0.45578164 0.13753757 0  
-0.05507968 -0.12135967 0  
0.14172421 -0.09428923 0  
0.2571752 -0.19664502 0  
[...]
POINT_DATA 2173 
SCALARS T float 
LOOKUP_TABLE default 
2.1065527417839558e-17 
9.419558496514751e-21 
4.783460839486975e-19 
2.9688812464855503e-18 
1.9289189930806307e-16 
-7.007635558178998e-17 
5.192978503577909e-16 
-5.198493485806488e-16 
-4.2252707200770955e-16 
-9.055710806078602e-17 
9.648586598618983e-17 
1.8124407792464408e-15 
6.427480919663938e-16 
4.672895077917092e-16 
-2.480315866288123e-16 
-3.0981140750110864e-16 
-2.357742408657249e-16 
1.0180183933166709e-16 
3.1143737191940253e-16 
1.4376570662059327e-16 
-2.590835814473941e-16 
-1.651401823308233e-16 
5.215730961712727e-16 
-9.616835883116336e-16 
8.287509648590116e-16 
-5.885351426881643e-16 
4.975151520977149e-17 
-1.428783116757193e-17 
-1.0240152942797038e-17 
-3.44158806736618e-17 
-5.190689207664689e-18 
-5.114587207334437e-18 
-2.110820360933407e-18 
6.755153547043645e-19 
9.21868463575728e-19 
4.856562060022087e-19 
1.914817028300175e-19 
1.6799653520715082e-19 
3.7617576286742856e-20 
9.64825470783257e-21 
-1.3116314326767586e-19 
6.541723091008096e-20 
7.822211456305946e-20 
-5.685187109627715e-20 
-1.5174926107412695e-19 
4.103664418701752e-19 
-2.3767472064138744e-19 
-3.022467903366925e-20 
-1.2475218148487126e-19 
7.751962278592963e-20 
1.1663435809990745e-18 
-3.382385637213771e-18 
4.812072832661917e-18 
-4.53766244747973e-18 
1.3974617708766876e-18 
1.5218353346558698e-18 
-4.744577362535541e-18 
9.116241347495864e-18 
-8.862728781610352e-18 
6.053488430927296e-18 
-1.6394002849411359e-18 
-2.8944364492012948e-18 
2.7073920465790602e-18 
-2.973837008270049e-18 
3.969282317777897e-18 
-2.5320597652871543e-18 
-1.2627969785209691e-17 
5.703623024563282e-18 
-1.5165238535101047e-18 
5.5012961274248035e-18 
-4.417315730282699e-18 
3.013820418181997e-18 
-5.06598203456349e-18 
5.7892038822155175e-18 
-8.523419538682871e-18 
4.460108874034865e-18 
1.7819892107501902e-17 
7.050371485890294e-18 
5.699338491158555e-18 
-4.105863804967382e-17 
1.0212085598848934e-17 
1.000118520279323e-17 
-7.461513597440238e-18 
-1.9705262306289883e-17 
5.2992297884558405e-17 
-3.986708124761322e-17 
-7.172898988642534e-18 
1.0822062717759026e-17 
2.0751236931443895e-17 
1.0970226681664845e-17 
-5.450780787380762e-17 
6.210285100224463e-17 
-7.817473365044644e-18 
-1.834384982292727e-18 
-3.70029066380051e-17 
9.566265782206605e-17 
-1.4806750936038947e-16 
1.6367458545797132e-16 
-1.2878467753341584e-16 
3.837085697553469e-17 
4.042018917250178e-17 
-1.559735766882146e-18 
-1.786002014391485e-17 
2.8285836648909695e-17 
-5.02143449351813e-17 
7.75243623744385e-17 
-5.57661936347685e-17 
-7.73557547715401e-17 
3.110222629903842e-17 
-6.335467047479442e-17 
3.3566054689338414e-17 
-3.2101906501553246e-18 
3.7098090756411876e-16 
2.4625207023435925e-17 
1.0190211887848739e-16 
-3.378038497867794e-16 
-2.7294077811201536e-16 
-1.527130336003986e-16 
-2.0277393273432536e-16 
-6.869209287709025e-17 
-2.779376165528868e-17 
1.9455285459760216e-17 
-4.669762328805414e-17 
1.4494590133350728e-16 
-2.1040578356442638e-16 
-3.751586753923075e-17 
9.23283697359039e-17 
3.0918791887039746e-16 
3.463330749247806e-16 
-3.486421532532724e-19 
2.820598483610017e-16 
-3.010136791808133e-16 
-6.469972430604853e-18 
2.2633959623513035e-17 
-1.0495185344552834e-16 
-3.5534208987449285e-17 
4.151231680477115e-16 
-1.0257786381047906e-15 
2.0895917198857376e-16 
1.2243604030473454e-15 
-7.990039990181238e-16 
4.0055589219262123e-16 
2.3661147506506317e-17 
-1.2057926105455107e-15 
2.4156700919850526e-15 
-7.682148516179367e-16 
1.0187433487082717e-15 
-1.0176517384058816e-16 
3.4136553567788014e-16 
1.268266155626092e-15 
6.544071887725431e-17 
-1.833499832009369e-16 
-2.691311209344776e-16 
5.693165319990088e-16 
-1.2131019133710188e-15 
-3.109932475927616e-16 
3.136541036654066e-17 
-3.393895469981953e-16 
-9.642392962275433e-17 
-1.5618422388150929e-16 
1.1458513902059196e-6 
-2.845520031809886e-5 
2.634653236896646e-5 
3.300749376799796e-5 
-0.0002434924419239481 
0.0001410037235672635 
0.6791724666391753 
4.463956472181839e-8 
-2.160435886120327e-5 
1.1130472011112271e-7 
-2.4142600118395276e-6 
2.1674888262570756e-5 
0.0004882375420541435 
0.002522162648842788 
0.031562771192653244 
9.178232340441571e-7 
0.00020359852399287043 
0.0027397129391616227 
1.2988313882940474e-6 
4.687713632395174e-5 
7.252965729713687e-5 
0.0019691586038023175 
1.1888816681270823e-5 
-0.0002162289391162144 
-0.00017266247021286956 
0.07176616597840826 
-3.073574343341996e-7 
-3.868247531020963e-5 
0.0005818775497519589 
0.010771839877371533 
-1.7735581632114063e-6 
-1.3663652320151635e-5 
0.00044445918909059493 
-8.761708363023504e-7 
-2.480146920246641e-5 
-0.0004987261790406483 
-0.00025677326483742783 
6.630670829640039e-6 
-1.07912116527287e-5 
1.5563329613767944e-5 
-0.0006613711015430392 
0.0006193077562015294 
0.1501478320117967 
2.619891122814893e-6 
0.000222541531602593 
0.02462177484455706 
1.1561165260944265e-7 
-2.8966547221780774e-5 
-9.748572552022694e-5 
-0.001259119291214516 
1.2723113790260313e-7 
2.2529979293070295e-5 
2.7590858947666705e-6 
0.001599056174620698 
8.013487767193336e-6 
3.880254124119387e-5 
-0.0007225500468106201 
6.629504667283835e-7 
3.6787985586911914e-5 
-0.000324763897422122 
4.037492798709092e-5 
0.0006788518929986559 
5.914967435900573e-6 
1.1299604262757725e-5 
-0.00022188336646828264 
-0.0004321038937576839 
0.00032186024374509056 
-5.961667458382181e-7 
-8.269712350733736e-5 
-9.813928056287617e-5 
0.00018101150881065135 
0.0009463051093578682 
1.4506300503928216e-6 
2.4013619448587566e-7 
1.858951738311159e-5 
-7.717916698629788e-6 
-0.001301093715398569 
3.64790715942351e-7 
3.7248886000756945e-6 
0.00012872577385390698 
0.00021036438930192644 
-0.000330045813085529 
0.5014739122815297 
1.623798632171477e-6 
1.6560557723944523e-5 
-0.00018757233532023775 
-1.2049067415220875e-6 
-1.5299095464532537e-5 
-0.00014612193851146538 
-0.00010532005554989376 
-5.215495340044513e-6 
8.104827935933897e-5 
-7.190113878699874e-5 
-0.0004248402125977208 
0.12685117394834491 
1.1169603628041629e-5 
-0.00026894540103406423 
0.0008043533476190334 
-7.340095781285359e-5 
0.09516150834090345 
2.3475168961414124e-6 
-1.4133633726668984e-5 
-7.529559893691223e-7 
-1.4785660281808895e-6 
-0.00028244697168259544 
8.051237627933815e-5 
1.3588251927234693e-5 
-0.00023434152191159315 
0.00022910366672822068 
6.183024129633783e-7 
2.9592081264886584e-6 
-0.00013144572380944988 
0.003104784567412486 
0.00037249073344731976 
0.41486609292499166 
8.070068234352139e-7 
-8.671898853679676e-5 
0.05131301798174562 
0.0019893052332294464 
0.001790029046863373 
1.6387976220495335e-5 
-0.00021632595612390936 
-0.0009622811784074235 
-5.420217057962813e-6 
6.693643008666147e-5 
-9.081599459140524e-5 
-4.56146390122041e-6 
0.00011959820430983798 
0.0008491841780260354 
0.13867106018969413 
1.7750612211615309e-6 
-4.490636760411086e-6 
-0.0021112600692684163 
1.3003157870622322e-6 
4.410610903402158e-5 
-0.00026539727037233716 
-0.0008853106990174476 
2.4913792363055875e-7 
1.303608413717939e-5 
-3.605634671418996e-5 
-4.455036467539074e-5 
0.012685064003942755 
1.2454923105688244e-5 
-0.0002133304350878377 
-0.0008191469063242106 
0.00020494394559585178 
-0.00012254533421263402 
-8.124001993165782e-7 
6.307254792670207e-5 
-0.0005627061731597544 
-8.854132371755072e-8 
2.913062038064176e-6 
2.024691222898345e-5 
-0.0005383339893015954 
-5.214654609380688e-7 
-7.670983115967838e-6 
-0.00027189795527535145 
1.939327964668693e-6 
-3.033923631670711e-6 
0.00019474788245450836 
-0.0005085346291253353 
-2.733538984512111e-5 
3.086062311606435e-7 
2.5373983621710384e-5 
-0.00027196150655239555 
0.0004643605875448974 
-1.5401380016037157e-6 
3.13425693018098e-5 
0.000641622205828326 
0.0004428503701156617 
-2.1642994369653438e-5 
1.2992561336755377e-5 
-7.406726766501864e-5 
0.0012146382948539588 
-2.835741774981149e-7 
-0.00011348168142054344 
0.00041489382957510333 
0.20385478371200555 
-8.191122992941191e-7 
-9.5705070772652e-5 
0.00014971709304644195 
0.6746054368097661 
4.6520131934767476e-7 
-0.00010390641370833479 
-5.072562496247667e-7 
-2.1431479591320818e-5 
0.0002070585314708573 
-0.0005621777235998617 
-0.0009606991931557018 
-5.243261391387208e-8 
-9.95801029886579e-6 
8.069258984212602e-6 
0.04941960629003636 
5.7502592111272135e-6 
5.501524338028134e-5 
0.0006149260680925993 
0.01925124585715194 
-1.0906694527366325e-5 
4.291984819078322e-5 
0.0003558278998391743 
0.006056539577874492 
2.321194151233082e-6 
-3.465489328691394e-5 
7.496271922435071e-5 
-1.651233841726034e-5 
-1.657477752960654e-5 
0.0002804839599679335 
0.0023632726215477825 
-1.2368600666114533e-5 
2.209365224593722e-6 
-3.775412808382853e-6 
2.9606184841097236e-5 
-1.3086354620704732e-7 
-1.147020234650161e-5 
-0.00018017613747209072 
0.0007755767397864008 
-0.0001629189128494462 
0.005431879292493999 
-6.229805363978195e-6 
6.518540874112806e-6 
-0.00021166240697626366 
7.197058851538092e-5 
4.133034686961381e-8 
1.2796684100451911e-5 
-8.387592699736066e-5 
5.614673550718843e-5 
1.000006595518239e-6 
-3.685845697566961e-5 
-0.000589200787466787 
0.02207763842571309 
1.0182847134940017e-6 
8.58059006327498e-6 
-2.1044326629616912e-5 
-0.00044464563728768245 
9.304117496007411e-6 
1.679915208535633e-5 
0.0012890513097771074 
0.0011043277772192612 
1.5562938792741524e-5 
-0.0001847068331360102 
0.000735303422407152 
0.026675989138290297 
-4.192245472750443e-6 
0.00018340865473869265 
0.001039060752138979 
-6.56761479060184e-7 
-1.2835078899163375e-5 
-0.00023071258789079426 
-0.001001086712944139 
-0.0003896753026215666 
3.98037919855387e-6 
4.362580133881969e-6 
-2.6214050601270467e-7 
-1.4490556404239462e-5 
6.541825132991047e-5 
-0.0006184917276162097 
0.0007366756180930751 
0.010219910232072537 
1.3563011160671022e-6 
9.150051020696769e-5 
2.3377768207287512e-6 
-2.6981609864919275e-6 
0.00012470677542259377 
-4.417116454435854e-6 
-2.2873407151053245e-5 
0.0010116884644768517 
-0.0009312530254298129 
5.902968183082632e-8 
1.3305577425777922e-5 
-0.0003493191465144671 
-3.296184839457606e-6 
0.16046158435575056 
-3.145215262177604e-7 
-1.1411940327998275e-5 
8.826679515552148e-5 
-0.0007866745963254386 
-3.34552011214635e-7 
1.4123137350037722e-5 
-0.0003823306770757695 
0.00973808091571185 
5.228365292773092e-5 
1.616226488005209e-7 
1.3745830267978136e-5 
-1.7270205052832853e-5 
-0.000802967534424359 
-4.591380286352634e-7 
0.00016088052448280798 
0.00029906941270386875 
-3.9950341083750386e-7 
-2.2157215971961494e-5 
-0.00010039977203433643 
-1.275683367858339e-6 
-3.84442143365567e-5 
-3.755077291242918e-5 
0.00045091275790293413 
-1.7519308768486548e-8 
2.1492455560053217e-6 
-0.00013093204829662167 
-0.0002200770564153744 
8.02637352501773e-7 
-0.0002900801581540561 
0.0004800346705332298 
0.2809214639142688 
3.93955951425561e-6 
-0.00016395969091727327 
-0.00029223412976151424 
0.003329198114524005 
0.004358045943354311 
0.4427970627943143 
7.104991531956077e-7 
-4.400636257281354e-5 
0.00011549618804818909 
0.0009004826135953272 
0.7933772974112376 
-6.287207038912386e-7 
-0.00011789307382654575 
-0.00016524737874210526 
-2.136500467801164e-5 
1.8241723816603983e-6 
7.992798177418163e-5 
0.002688685455667917 
0.1449254084007847 
-0.00032094259184810075 
-3.4075574601668444e-6 
-7.326342782620863e-5 
-0.0005504768178968188 
0.013079863927452424 
-3.808964438907656e-8 
1.1506549592697281e-5 
2.5173739668154404e-5 
-0.0008514605826002056 
-6.791732194077144e-5 
0.07790728492784674 
-1.0047231202007221e-6 
3.4886922274255526e-5 
5.6983125579316246e-5 
-3.4649375796917075e-6 
9.267255491504272e-5 
9.633813905831364e-5 
0.0634476822061934 
-4.2710262938638405e-6 
0.00015194001961754407 
0.0005087852009365491 
-0.0004402238820364781 
0.016571264485163512 
9.861619952440376e-6 
-0.00010230040702098788 
-0.0030378618613350833 
-0.00045573928077785277 
0.0005419363124200059 
1.166151672126444e-5 
-3.224626574213535e-7 
-6.855346846573894e-6 
-2.0499368978445906e-5 
-0.0004275562834948565 
0.004062316651668638 
-3.4915597108530626e-7 
4.110700164450095e-5 
-0.00018359645664988957 
0.0005278482388211463 
3.6362763862652993e-7 
-2.023764294757175e-5 
0.00014072493022819537 
-0.0005639323694249098 
2.727408303198616e-5 
4.789719959267773e-6 
1.2008640110780834e-5 
-2.726591259564138e-7 
-2.4147814580276527e-5 
-0.0001121243482789041 
-0.0004274645091978558 
-5.798399649141782e-8 
-1.693036617787995e-5 
-9.209815489404567e-6 
-0.00011331699243603596 
0.00020309448398206148 
0.3935685264207607 
1.3193335665630086e-6 
-7.441423280660156e-5 
0.0021216931676372743 
-5.911497175641404e-6 
0.00016365298768160973 
-3.2532451295028094e-5 
0.00030233435723428905 
-0.00010032198216653414 
0.35131476363666214 
-1.5962035538311248e-6 
-9.214644415086468e-5 
0.0005073286856029723 
0.0006466220303003142 
-3.5725703458687075e-6 
0.00013796240779179414 
4.058788312083074e-5 
-0.0008132617293903999 
0.00019901449191350227 
8.76364983383472e-6 
6.152621794596362e-5 
4.57605692512864e-6 
-4.420038750601558e-5 
8.686011625726047e-5 
0.00045989235466959105 
-2.12806275652946e-6 
0.003234478287889881 
0.07057857329874018 
3.15817625279242e-6 
-0.00023242732447286413 
-0.0006981519669777874 
1.6301107761502209e-6 
-4.7814512109233003e-5 
-0.0005868593858795354 
-1.7694011211906097e-7 
-4.494006777322128e-5 
-0.00021267760999341934 
0.004119815573138682 
1.1105455781316029e-5 
0.00011691712302470443 
6.139948910580677e-7 
-1.1448914226103957e-6 
2.3187241239280542e-5 
2.9459498237572187e-6 
-6.716513695123675e-5 
0.012893522751229219 
-9.007125596794954e-7 
3.147969963583348e-5 
7.43501644182562e-5 
-8.21435676093175e-6 
1.0238349447499197e-5 
-7.388252123044113e-5 
0.12310698030799673 
1.755672384675214e-7 
4.501111192358803e-5 
-0.0001885362534565024 
-1.8559143305630698e-7 
-2.82060558951429e-5 
8.76007729180956e-6 
0.0002377923726192677 
-0.0008132680877519761 
2.5989578860474524e-6 
-3.4388386772353227e-6 
-2.6378314522113558e-5 
-0.0022845415178302064 
-4.439752087415969e-8 
4.902995700197886e-6 
4.7193487987834054e-5 
0.002888085179298052 
2.247464570929669e-7 
-2.955903189058762e-5 
-1.5362927975412814e-5 
-4.110782073224668e-6 
-3.893815509458083e-5 
1.2983741101175176e-5 
1.5042849818597444e-6 
-3.2928840751771555e-5 
-0.001180648339763796 
-0.000224517469480031 
-1.3697893500205003e-7 
-1.970703940153251e-5 
5.382531160669887e-6 
0.0026323215264075243 
0.019060039862488772 
-8.258062954254263e-6 
-8.810680212589933e-5 
0.00021399247621531822 
-6.030427545965772e-7 
4.0161480485955855e-6 
-0.00012872924447910038 
0.01800675007957817 
0.0011550003748670942 
1.0442897734512242e-6 
9.768773640371567e-6 
-0.00041486838608822355 
0.22044047652382553 
-0.0008404141172958929 
-4.538019412583569e-8 
-2.3317796847716253e-6 
-0.00029050616817837406 
0.0017731133324185003 
-3.175492131702391e-6 
-9.470413534124939e-5 
0.0016014891080984772 
0.0009580115814750025 
2.771672473227476e-6 
2.0100496768293097e-5 
0.0006109283588990097 
-0.00047396705805623674 
0.0004967221527060502 
0.005607423122882135 
5.117372289323916e-5 
1.4443603435789867e-6 
4.165878823844431e-5 
1.1654563047379043e-5 
-1.0631385991193954e-5 
-2.8313694256944836e-5 
0.0006418894173072768 
-0.0005837034744754192 
0.0002577482128862465 
0.4523301689270866 
0.21134325347868846 
0.22198876598453454 
-2.737746285752058e-7 
-4.509008327296931e-7 
1.9421125696125952e-7 
-6.427979788567066e-5 
3.637528161602253e-5 
4.812741150834195e-5 
0.0003958410859343687 
1.903026223340775e-5 
-0.0005162945923608041 
-0.001927945410883976 
0.004725947294788822 
2.3746923182220706e-6 
-5.8019298691541025e-5 
0.0007371469000838663 
-5.923603323036555e-6 
2.9936886231565868e-5 
-2.638199309128371e-5 
0.0003066774018606514 
0.0001468532075357374 
0.25349220447691073 
0.1254581401970417 
-3.596416102796447e-7 
-7.064960219833095e-8 
1.2612153535475619e-5 
-3.196755433883922e-5 
6.117436605785823e-6 
3.1121732695309808e-6 
-7.725347261030107e-6 
-0.0023316522812762853 
0.0013390197586450154 
-0.00010603120791608503 
0.0011356882398723853 
-0.0005824360614869437 
0.0001445864988187965 
-0.0008053714567960432 
0.0006406020036565824 
4.5870276980619043e-7 
-1.0582985075461854e-6 
8.971419833953623e-7 
1.0435252719262227e-5 
-2.6469166661552364e-5 
2.7837472895621304e-5 
0.00022317697748220765 
-0.00010293641347215829 
0.00023071592204719312 
0.0002751619840580799 
-4.157511237146399e-6 
-3.0187956806377475e-8 
-3.43518678798903e-9 
-3.2447814687443246e-6 
-2.2694325366697258e-6 
0.00014257722711074692 
0.00011122569395004301 
-3.7808298697781625e-5 
-0.00030648637336685194 
2.5365425673885634e-7 
-1.5934157614630998e-7 
3.0462915073688736e-5 
-2.3497930904329776e-5 
0.00013181073850135485 
-0.0001283897979013189 
-0.0005707498672993123 
-0.00020843138362506623 
-0.0001489487293952999 
0.5719922475968723 
0.29811903029004866 
0.3594783312824705 
-1.0520894881067173e-6 
-1.9281524345530922e-6 
1.2210136248368323e-6 
0.00018274347140733127 
1.6291628881048505e-5 
-0.00012744881749191677 
-1.2292530371850981e-6 
1.1933579366405907e-6 
5.159283027144911e-7 
-2.4447204235573394e-5 
3.209082207526687e-5 
8.462195187454459e-6 
9.644630597705697e-6 
9.062927340685701e-6 
0.00016661371058641192 
0.000317026161111046 
-0.0005799430338276248 
0.0007609770270584242 
-1.0670095717864733e-7 
1.0415898182366078e-7 
-3.0412424154469055e-7 
5.4520766539000265e-6 
1.2276480946652642e-6 
-2.4439896803605477e-6 
-1.4077993111669545e-6 
2.079383127659487e-5 
-0.00017948053405699742 
6.773018201019667e-6 
1.4820674532504441e-5 
0.00010708919608984693 
0.00025609985532500497 
2.039025749136386e-6 
3.104974914356176e-5 
0.00011842317196838787 
-1.3987819599917343e-7 
2.301753883353116e-6 
-1.722038738293553e-5 
-0.00012814947081534101 
2.799175772432167e-6 
1.3839268518564417e-6 
2.79153539670652e-6 
-1.195050675896649e-6 
2.8226645168729917e-5 
-5.503564619362291e-6 
0.00022423172794947408 
-0.0007753713926487334 
-0.00014277660855626398 
0.0007603880703648204 
0.0003029387975553926 
0.0004021704862875884 
-0.0006025762120449116 
-5.996218427453576e-8 
1.1082175784393686e-7 
-8.126094965767778e-6 
2.4153921898558866e-5 
6.888020921253769e-5 
-0.0001541019970969265 
-0.000246401510522142 
0.00015655508587185236 
-4.648780406905124e-7 
4.2335781763807074e-7 
-2.946086038663753e-5 
3.190913252781844e-5 
-0.00014739862458681624 
-5.839246585251728e-6 
0.0002901396155967079 
5.3982402500625934e-5 
0.20738740665473637 
0.11764844659833391 
1.9025832583291005e-6 
-9.513678773658954e-7 
-1.0657113388873977e-5 
-8.895460603253186e-7 
-0.0019222449561079997 
0.00039727300842848465 
0.002061858045538827 
1.064720173426081e-6 
8.127161136411701e-7 
1.8479367809601825e-6 
8.70006985434774e-6 
-1.2379044487322573e-5 
1.7455957691021222e-6 
-0.0001278109425670426 
-1.3617533259967449e-5 
0.00012883008560716567 
1.2547789012127134e-5 
-9.27121451995047e-6 
9.968070940877008e-5 
0.00023672261542133342 
-2.756917216948635e-6 
-1.4017198504512972e-7 
-1.9196390575878526e-6 
-1.528018562595154e-5 
-0.0003568097166655415 
0.00011965917796803332 
0.000187247554761139 
0.0004273438751447216 
-5.3420760179137925e-6 
8.048530716744859e-7 
-4.076709449498096e-6 
8.095069876528872e-6 
-2.902179795898052e-5 
0.00017298190222591285 
-0.0002155361625441504 
0.0006959731035331518 
0.0002459756979301709 
-0.00120694903785648 
-2.770636258360623e-7 
3.501242198019834e-7 
8.238187724417798e-8 
-1.374650131397702e-5 
2.1643177328192463e-5 
9.390676879476582e-6 
0.00017161492225048862 
0.0001746790477644362 
-0.00018013087565795798 
0.00013470280959990656 
0.00042767255729013687 
-0.0003025205448560931 
-0.0009180230706912867 
0.0008589525002512346 
4.61881273494528e-8 
4.631016399913128e-7 
1.9195986538724266e-5 
-5.304633679843934e-6 
-0.00010703368736717472 
8.917445800254607e-5 
-0.0001441303371183836 
0.0010877868818374304 
0.00010233481292986391 
-0.0005096630685444138 
9.992920100347996e-8 
-3.2207341741830626e-8 
3.4579464240406536e-6 