# vtk DataFile Version 3.0 
Unstructured Grid 
ASCII 
DATASET UNSTRUCTURED_GRID
POINTS 2173 float 
-0.5 -0.5 0  
0.5 -0.5 0  
0.5 0.5 0  
-0.5 0.5 0  
-0.475 -0.5 0  
-0.45 -0.5 0  
-0.425 -0.5 0  
-0.4 -0.5 0  
-0.375 -0.5 0  
-0.35 -0.5 0  
-0.325 -0.5 0  
-0.3 -0.5 0  
-0.275 -0.5 0  
-0.25 -0.5 0  
-0.225 -0.5 0  
-0.2 -0.5 0  
-0.175 -0.5 0  
-0.15 -0.5 0  
-0.125 -0.5 0  
-0.1 -0.5 0  
-0.075 -0.5 0  
-0.05 -0.5 0  
-0.025 -0.5 0  
-1.3761214e-12 -0.5 0  
0.025 -0.5 0  
0.05 -0.5 0  
0.075 -0.5 0  
0.1 -0.5 0  
0.125 -0.5 0  
0.15 -0.5 0  
0.175 -0.5 0  
0.2 -0.5 0  
0.225 -0.5 0  
0.25 -0.5 0  
0.275 -0.5 0  
0.3 -0.5 0  
0.325 -0.5 0  
0.35 -0.5 0  
0.375 -0.5 0  
0.4 -0.5 0  
0.425 -0.5 0  
0.45 -0.5 0  
0.475 -0.5 0  
0.5 -0.475 0  
0.5 -0.45 0  
0.5 -0.425 0  
0.5 -0.4 0  
0.5 -0.375 0  
0.5 -0.35 0  
0.5 -0.325 0  
0.5 -0.3 0  
0.5 -0.275 0  
0.5 -0.25 0  
0.5 -0.225 0  
0.5 -0.2 0  
0.5 -0.175 0  
0.5 -0.15 0  
0.5 -0.125 0  
0.5 -0.1 0  
0.5 -0.075 0  
0.5 -0.05 0  
0.5 -0.025 0  
0.5 -1.3761214e-12 0  
0.5 0.025 0  
0.5 0.05 0  
0.5 0.075 0  
0.5 0.1 0  
0.5 0.125 0  
0.5 0.15 0  
0.5 0.175 0  
0.5 0.2 0  
0.5 0.225 0  
0.5 0.25 0  
0.5 0.275 0  
0.5 0.3 0  
0.5 0.325 0  
0.5 0.35 0  
0.5 0.375 0  
0.5 0.4 0  
0.5 0.425 0  
0.5 0.45 0  
0.5 0.475 0  
0.475 0.5 0  
0.45 0.5 0  
0.425 0.5 0  
0.4 0.5 0  
0.375 0.5 0  
0.35 0.5 0  
0.325 0.5 0  
0.3 0.5 0  
0.275 0.5 0  
0.25 0.5 0  
0.225 0.5 0  
0.2 0.5 0  
0.175 0.5 0  
0.15 0.5 0  
0.125 0.5 0  
0.1 0.5 0  
0.075 0.5 0  
0.05 0.5 0  
0.025 0.5 0  
1.3761214e-12 0.5 0  
-0.025 0.5 0  
-0.05 0.5 0  
-0.075 0.5 0  
-0.1 0.5 0  
-0.125 0.5 0  
-0.15 0.5 0  
-0.175 0.5 0  
-0.2 0.5 0  
-0.225 0.5 0  
-0.25 0.5 0  
-0.275 0.5 0  
-0.3 0.5 0  
-0.325 0.5 0  
-0.35 0.5 0  
-0.375 0.5 0  
-0.4 0.5 0  
-0.425 0.5 0  
-0.45 0.5 0  
-0.475 0.5 0  
-0.5 0.475 0  
-0.5 0.45 0  
-0.5 0.425 0  
-0.5 0.4 0  
-0.5 0.375 0  
-0.5 0.35 0  
-0.5 0.325 0  
-0.5 0.3 0  
-0.5 0.275 0  
-0.5 0.25 0  
-0.5 0.225 0  
-0.5 0.2 0  
-0.5 0.175 0  
-0.5 0.15 0  
-0.5 0.125 0  
-0.5 0.1 0  
-0.5 0.075 0  
-0.5 0.05 0  
-0.5 0.025 0  
-0.5 1.3761214e-12 0  
-0.5 -0.025 0  
-0.5 -0.05 0  
-0.5 -0.075 0  
-0.5 -0.1 0  
-0.5 -0.125 0  
-0.5 -0.15 0  
-0.5 -0.175 0  
-0.5 -0.2 0  
-0.5 -0.225 0  
-0.5 -0.25 0  
-0.5 -0.275 0  
-0.5 -0.3 0  
-0.5 -0.325 0  
-0.5 -0.35 0  
-0.5 -0.375 0  
-0.5 -0.4 0  
-0.5 -0.425 0  
-0.5 -0.45 0  
-0.5 -0.475 0  
-0.002115384 -0.00023065208 0  
-0.20714286 -0.20714286 0  
0.20714286 -0.20714286 0  
0.20714286 0.20714286 0  
-0.20714286 0.20714286 0  
-0.28155318 -0.0017231192 0  
0.0017231192 -0.28155318 0  
0.28155318 0.0017231192 0  
-0.0017231192 0.28155318 0  
0.3319978 -0.33098683 0  
0.33098683 0.3319978 0  
-0.3319978 0.33098683 0  
-0.33098683 -0.3319978 0  
-0.14015679 -0.06698606 0  
0.06698606 -0.14015679 0  
0.14015679 0.06698606 0  
-0.06698606 0.14015679 0  
-0.1387125 -0.34573975 0  
0.34573975 -0.1387125 0  
0.1387125 0.34573975 0  
-0.34573975 0.1387125 0  
0.14046866 -0.34602854 0  
0.34602854 0.14046866 0  
-0.14046866 0.34602854 0  
-0.34602854 -0.14046866 0  
-0.05869875 -0.16617337 0  
0.18217777 -0.061504476 0  
0.062312964 0.18362015 0  
-0.18362015 0.062312964 0  
-0.034321424 -0.38563195 0  
0.38563195 -0.034321424 0  
0.034321424 0.38563195 0  
-0.38563195 0.034321424 0  
0.39586002 -0.2428538 0  
0.2428538 0.39586002 0  
-0.39586002 0.2428538 0  
-0.2428538 -0.39586002 0  
0.23688246 -0.38952246 0  
0.38952246 0.23688246 0  
-0.23688246 0.38952246 0  
-0.38952246 -0.23688246 0  
-0.24287231 -0.09948847 0  
0.09948847 -0.24287231 0  
0.24287231 0.09948847 0  
-0.09948847 0.24287231 0  
-0.11560815 -0.24300627 0  
0.24300627 -0.11560815 0  
0.11560815 0.24300627 0  
-0.24300627 0.11560815 0  
-0.40192315 -0.4008276 0  
0.4008276 -0.40192315 0  
0.40192315 0.4008276 0  
-0.4008276 0.40192315 0  
0.06409326 -0.40289903 0  
0.40289903 0.06409326 0  
-0.06409326 0.40289903 0  
-0.40289903 -0.06409326 0  
0.2962961 -0.23982804 0  
0.23982804 0.2962961 0  
-0.2962961 0.23982804 0  
-0.23982804 -0.2962961 0  
-0.28087237 -0.21196799 0  
0.21196799 -0.28087237 0  
0.28087237 0.21196799 0  
-0.21196799 0.28087237 0  
-0.0901279 0.007867504 0  
-0.05002927 -0.07494272 0  
0.0873353 -0.009871756 0  
0.0071518295 0.09216282 0  
-0.14120433 -0.1484696 0  
-0.14581114 0.13960092 0  
0.1458264 -0.14505939 0  
0.13960092 0.14581114 0  
0.41838804 -0.3182741 0  
0.3182741 0.41838804 0  
-0.41838804 0.3182741 0  
-0.3182741 -0.41838804 0  
0.32118136 -0.41712493 0  
0.41712493 0.32118136 0  
-0.32118136 0.41712493 0  
-0.41712493 -0.32118136 0  
-0.19707234 -0.014843048 0  
0.018050108 -0.20183705 0  
0.19707234 0.014843048 0  
-0.014843048 0.19707234 0  
-0.10938372 -0.41847488 0  
0.41847488 -0.10938372 0  
0.10938372 0.41847488 0  
-0.41847488 0.10938372 0  
0.15773043 -0.4267032 0  
0.4267032 0.15773043 0  
-0.15773043 0.4267032 0  
-0.4267032 -0.15773043 0  
-0.3204562 -0.07174808 0  
0.07174808 -0.3204562 0  
0.3204562 0.07174808 0  
-0.07174808 0.3204562 0  
0.02801032 -0.07269879 0  
-0.31817523 0.069836795 0  
-0.069836795 -0.31817523 0  
0.31817523 -0.069836795 0  
0.069836795 0.31817523 0  
0.43106207 -0.17757268 0  
0.17757268 0.43106207 0  
-0.43106207 0.17757268 0  
-0.17757268 -0.43106207 0  
0.0703783 0.071201205 0  
-0.051593844 0.064346604 0  
0.099701226 -0.08333426 0  
0.2863281 -0.17248559 0  
0.17248559 0.2863281 0  
-0.2863281 0.17248559 0  
-0.17248559 -0.2863281 0  
-0.2341888 0.04979648 0  
-0.049194112 -0.231281 0  
0.23358595 -0.04946041 0  
0.04979648 0.2341888 0  
-0.009939441 -0.13691185 0  
-0.26560438 -0.17864102 0  
0.17864102 -0.26560438 0  
0.26560438 0.17864102 0  
-0.17864102 0.26560438 0  
0.013302229 -0.43510666 0  
0.43510666 0.013302229 0  
-0.013302229 0.43510666 0  
-0.43510666 -0.013302229 0  
0.09432827 0.114700764 0  
-0.11539384 0.093188405 0  
-0.3413634 -0.005100272 0  
0.005100272 -0.3413634 0  
0.3413634 0.005100272 0  
-0.005100272 0.3413634 0  
-0.19817708 -0.3508856 0  
0.3508856 -0.19817708 0  
0.19817708 0.3508856 0  
-0.3508856 0.19817708 0  
-0.34100306 -0.27216324 0  
0.27216324 -0.34100306 0  
0.34100306 0.27216324 0  
-0.27216324 0.34100306 0  
-0.20269383 -0.14403741 0  
0.14393912 -0.2028372 0  
0.2026342 0.14393856 0  
-0.14393856 0.2026342 0  
-0.1030633 -0.10524017 0  
-0.4394695 -0.104853734 0  
0.104853734 -0.4394695 0  
0.4394695 0.104853734 0  
-0.104853734 0.4394695 0  
-0.44156647 -0.44156647 0  
0.44156647 -0.44156647 0  
0.44156647 0.44156647 0  
-0.44156647 0.44156647 0  
-0.2683254 -0.44465622 0  
0.44465622 -0.2683254 0  
0.2683254 0.44465622 0  
-0.44465622 0.2683254 0  
0.2654342 -0.4435478 0  
0.4435478 0.2654342 0  
-0.2654342 0.4435478 0  
-0.4435478 -0.2654342 0  
-0.27373606 -0.34534052 0  
0.34534052 -0.27373606 0  
0.27373606 0.34534052 0  
-0.34534052 0.27373606 0  
-0.05307205 -0.4481981 0  
0.4481981 -0.05307205 0  
0.05307205 0.4481981 0  
-0.4481981 0.05307205 0  
-0.35614902 -0.19390328 0  
0.19390328 -0.35614902 0  
0.35614902 0.19390328 0  
-0.19390328 0.35614902 0  
-0.14022674 -0.012452113 0  
0.14171903 0.011271359 0  
-0.01125192 0.14089845 0  
-0.19556868 -0.06932378 0  
0.070511825 -0.19668652 0  
0.19556868 0.06932378 0  
-0.06932378 0.19556868 0  
-0.24951252 -0.039742906 0  
0.04037078 -0.2503529 0  
0.24951252 0.039742906 0  
-0.039742906 0.24951252 0  
0.44100407 -0.36164257 0  
0.36164257 0.44100407 0  
-0.44100407 0.36164257 0  
-0.36164257 -0.44100407 0  
-0.4451273 -0.36589316 0  
0.36589316 -0.4451273 0  
0.4451273 0.36589316 0  
-0.36589316 0.4451273 0  
0.1121834 -0.30242515 0  
0.30242515 0.1121834 0  
-0.1121834 0.30242515 0  
-0.30242515 -0.1121834 0  
-0.115146436 -0.19087775 0  
0.19190264 -0.11309679 0  
0.11520548 0.19263776 0  
-0.19263776 0.11520548 0  
-0.08287991 -0.37025127 0  
0.37025127 -0.08287991 0  
0.08287991 0.37025127 0  
-0.37025127 0.08287991 0  
0.23791528 -0.24381089 0  
0.24381089 0.23791528 0  
-0.23791528 0.24381089 0  
-0.24381089 -0.23791528 0  
-0.44626984 -0.21174923 0  
0.21174923 -0.44626984 0  
0.44626984 0.21174923 0  
-0.21174923 0.44626984 0  
0.35174853 -0.37705234 0  
0.37705234 0.35174853 0  
-0.35174853 0.37705234 0  
-0.37705234 -0.35174853 0  
-0.048605647 -0.023262763 0  
-0.1551113 -0.21381997 0  
0.21381997 -0.1551113 0  
0.1551113 0.21381997 0  
-0.21381997 0.1551113 0  
-0.29403278 -0.30027482 0  
0.30027482 -0.29403278 0  
0.29403278 0.30027482 0  
-0.30027482 0.29403278 0  
0.12173745 -0.390654 0  
0.390654 0.12173745 0  
-0.12173745 0.390654 0  
-0.390654 -0.12173745 0  
-0.12236246 -0.2979882 0  
0.2979882 -0.12236246 0  
0.12236246 0.2979882 0  
-0.2979882 0.12236246 0  
-0.0945969 -0.046371013 0  
0.035276897 -0.027358124 0  
-0.0076714605 0.051946 0  
-0.30809116 -0.17165439 0  
0.17165439 -0.30809116 0  
0.30809116 0.17165439 0  
-0.17165439 0.30809116 0  
-0.16592422 -0.10879113 0  
0.10700909 -0.1687818 0  
0.16864619 0.10664837 0  
-0.10664837 0.16864619 0  
-0.16784625 -0.38069874 0  
0.38069874 -0.16784625 0  
0.16784625 0.38069874 0  
-0.38069874 0.16784625 0  
-0.4563872 -0.05993889 0  
0.05993889 -0.4563872 0  
0.4563872 0.05993889 0  
-0.05993889 0.4563872 0  
0.31103167 -0.37412483 0  
0.37412483 0.31103167 0  
-0.31103167 0.37412483 0  
-0.37412483 -0.31103167 0  
-0.3909646 -0.012754724 0  
0.012754724 -0.3909646 0  
0.3909646 0.012754724 0  
-0.012754724 0.3909646 0  
0.44915667 -0.21679194 0  
0.21679194 0.44915667 0  
-0.44915667 0.21679194 0  
-0.21679194 -0.44915667 0  
0.045831423 0.12033131 0  
-0.12662303 0.045442794 0  
-0.3107799 -0.37355793 0  
0.37355793 -0.3107799 0  
0.3107799 0.37355793 0  
-0.37355793 0.3107799 0  
0.04152367 0.021693805 0  
-0.08040017 -0.2675595 0  
0.26794365 -0.08044455 0  
0.080500565 0.2680441 0  
-0.2680441 0.080500565 0  
-0.13753757 -0.45578164 0  
0.45578164 -0.13753757 0  
0.13753757 0.45578164 0  
-0.45578164 0.13753757 0  
-0.05507968 -0.12135967 0  
0.14172421 -0.09428923 0  
0.2571752 -0.19664502 0  
[...]
POINT_DATA 2173 
SCALARS T float 
LOOKUP_TABLE default 
2.9999072837187396e-20 
1.38272655083749e-18 
1.3772888958360667e-17 
-2.0120641610522722e-20 
-3.5590931647630534e-18 
-2.6986813840805105e-19 
1.8341927078737178e-17 
3.8156451852497154e-19 
1.1399466414938383e-17 
1.1864266235414263e-17 
1.4684483185411263e-17 
3.2922175244870926e-18 
-2.664599516664293e-17 
4.424270763294084e-18 
-1.6763116246009646e-17 
2.9154343128459e-18 
-2.947178331852083e-17 
6.203084028942106e-17 
-7.697164513595622e-17 
9.472115579606826e-17 
-6.416646668978618e-17 
3.1731644230829993e-17 
1.643232685522316e-17 
-3.1661015541108554e-18 
-6.743814813730513e-18 
1.3977484223786995e-17 
-2.441786279705147e-17 
6.302852283190665e-17 
-7.285306879989455e-17 
-2.4123635732326905e-17 
-1.350173543249809e-17 
-4.774579656380336e-17 
3.572549241623494e-17 
-8.041113024843698e-17 
2.251151874702587e-16 
-5.12157625290967e-18 
1.5186572201517755e-16 
-7.651521040706431e-17 
-7.601692961967818e-17 
-3.614080555787656e-17 
-1.5018891129935967e-16 
-3.984892946856147e-18 
2.31552198123188e-17 
-2.2130347111639975e-17 
-4.7047967320594866e-17 
1.552598272060947e-16 
-1.1443080759325536e-16 
4.2403009422792765e-17 
1.7199395064381232e-16 
2.3094023767119846e-16 
1.783234920900868e-16 
3.12369248154065e-17 
1.676632432013894e-16 
-1.226323211558232e-16 
-5.635685801387804e-17 
-9.405204538769082e-17 
-7.267874128646178e-18 
-3.5726162664410565e-16 
3.7953196696897805e-16 
-6.603828533888293e-16 
-6.284728789814788e-17 
6.677926044899185e-16 
-4.673062313901663e-16 
2.648281030079226e-16 
-8.573175388503908e-17 
-5.442417905639735e-16 
1.4456942136177026e-15 
-5.463978278752771e-16 
5.271368464018347e-16 
-2.276852150787719e-16 
1.2509050532277835e-16 
5.472705036444489e-16 
-9.271898340511495e-17 
-8.240899155271074e-17 
-7.19190120178976e-16 
3.430670750460475e-16 
-8.821605126839708e-16 
-1.5317064831201694e-16 
8.112310756902064e-17 
-1.649218178011521e-16 
1.2553348765578018e-17 
-8.536991976817208e-17 
1.260834712090807e-16 
-4.4264058974654354e-17 
3.6919597163774717e-16 
-2.814620194581084e-16 
-3.075430703630774e-16 
-3.1436168178193314e-16 
-2.68346343650955e-16 
4.702818020395057e-16 
6.622566301248168e-16 
-1.0636152534950166e-16 
2.225058910268748e-16 
-1.323179893371454e-16 
-2.832291620149486e-16 
1.9154977411650662e-16 
-1.911899108514573e-16 
2.1372367397842814e-16 
-2.895376545129671e-16 
-1.656477120006622e-16 
6.457183316794102e-16 
-1.063598517539888e-15 
9.082265892423346e-16 
-6.580423904839558e-16 
1.4005706239165477e-16 
-1.3314109277943446e-16 
-2.551199474135709e-17 
-5.305558340332661e-17 
-1.427397420144159e-17 
-1.017877815091726e-17 
-5.404989377113562e-18 
6.837946315598881e-18 
5.6410458168288684e-18 
2.610969203095615e-18 
1.9721290929452075e-18 
7.012519624278862e-19 
-1.5062157387196594e-18 
-1.4128321595106058e-18 
-1.911675710987892e-18 
-8.064024139899062e-19 
9.051517496346658e-19 
-9.221797578649581e-19 
3.4386253858104314e-19 
1.9496471820890775e-18 
3.4842882807840137e-19 
2.048446396218599e-18 
2.0378898069473982e-18 
2.6708669800729623e-18 
-3.532837249331266e-18 
-3.050670113335386e-18 
-4.638922286474811e-19 
-6.540580577979759e-19 
-2.0948495640349045e-18 
5.576230547913949e-19 
-3.667774967763103e-18 
5.3896165610375265e-19 
-9.646518847778978e-19 
-1.4838660919665636e-18 
1.3001874200621656e-18 
-1.9780563967081843e-18 
4.07091732394045e-18 
-5.440648422320755e-18 
7.397442372471332e-18 
-5.9091715573824296e-18 
-8.098512474750619e-18 
-1.1793494077348488e-18 
-3.745009660758639e-18 
-1.9977782437233366e-18 
-2.519564468613505e-18 
-2.4131631544601612e-18 
-3.359368317429699e-18 
-1.18687621973898e-19 
-5.1059705781940994e-18 
-6.008343002479381e-18 
4.645038765197257e-18 
-5.6520590172446574e-18 
-5.808464986839051e-18 
-1.4380090610127064e-17 
-1.6906848808972039e-18 
4.2505222331792146e-18 
5.9720526565894716e-6 
2.3189242027752353e-5 
-7.22001115913759e-5 
0.0018159343758119416 
0.0020539970605408715 
2.0979482812295146e-6 
-6.513921754524997e-6 
-4.880035153721034e-5 
0.5097420935979349 
2.4978544054029584e-5 
0.0004280431884015965 
1.1429892790477234e-6 
5.347784532273948e-7 
1.2738002048733032e-5 
1.4301428403510955e-5 
0.00036123922344807836 
0.06881187672728475 
1.4880667412387953e-5 
-4.3897300480937044e-5 
0.004131339401204667 
-2.7060118543285243e-7 
-9.354771255947931e-5 
-9.04909306448901e-5 
0.013803391354094566 
4.141333790254405e-6 
2.9389583698970543e-6 
0.00028502672797615756 
0.10865039654856358 
-1.446170079432102e-5 
2.971246928371439e-5 
0.0003757922212125767 
0.016195348170720558 
-1.7247506018044355e-6 
-0.00019915143501511215 
3.461250875387171e-5 
-1.2301500243310123e-6 
-5.626523384754543e-6 
2.8484498250276677e-5 
-0.00023195646098179745 
4.348261400528556e-6 
-4.6740905530976e-6 
-1.842254704477291e-6 
0.00011384848748801716 
0.0004706984570133709 
0.2537612210037572 
-1.6197586193759916e-5 
-0.00012533354427036867 
0.027663272010249824 
-1.6904970252442228e-5 
4.2480735629781685e-6 
-1.655076781468147e-5 
-0.0006962813634925606 
-3.927027093447741e-7 
2.799356873915423e-5 
-0.000396190282355781 
0.007625305382777161 
3.183723764587828e-6 
-0.0001461055845365969 
0.0011292019850524292 
-1.1760179292198432e-5 
1.651505603430975e-5 
7.67842536484913e-6 
-0.0001459065596271025 
0.0007544346236491564 
0.0017473710720544349 
4.82443310680508e-7 
-8.255946240058013e-6 
-0.00022500500110474956 
0.008713121351358058 
-8.018422594200293e-6 
0.008140795435419344 
5.258187567357767e-5 
0.0021273604884611674 
-1.0511398726028448e-5 
-0.0003692134569472125 
2.3720031815983845e-7 
6.052586503041258e-6 
5.896441384445158e-5 
-0.0004143464986740201 
2.9718687136082503e-6 
4.538063166700381e-6 
1.916360141114988e-6 
3.800182180921376e-6 
-0.0006779378677076223 
0.4049488700816961 
7.996098555126851e-6 
0.000128452659511049 
5.1630275518140934e-5 
-2.6189388920634822e-6 
4.4873524100423876e-5 
0.0001916785635552784 
-0.00011286328073036566 
-9.032980807471176e-6 
-3.556719289354531e-7 
-0.00013448275671344923 
-0.00027947036414711094 
0.18792705687221803 
-0.00015455793902170874 
3.841993959253645e-6 
-1.3381001109066648e-5 
4.818816175944452e-5 
0.07937671986905122 
-6.487222916649458e-5 
0.0004580178600660253 
-1.0164963047598452e-6 
-4.965142382784001e-6 
0.0008182300284057403 
0.0019346394726216711 
7.110646575693526e-5 
-9.436229083858648e-5 
0.0038343090582956306 
-1.1250745866243536e-5 
-1.8696436889943505e-6 
6.246998747782605e-7 
-4.0242665112201634e-5 
-3.1128163945406835e-5 
0.2887575471231017 
-1.8511990316687124e-5 
9.219780270054857e-6 
-0.00014832247130679832 
0.0010078460951829043 
0.015215483087368031 
5.2201569237502814e-5 
4.4587560242740795e-5 
0.00047940791471825427 
-6.4059156212721286e-6 
0.0033077356590051742 
0.0025314771174330306 
3.7731417626383613e-6 
-1.2356996554529827e-5 
0.0004738502019448449 
0.14521302954879173 
2.5123901866629174e-5 
-9.2407365365993e-5 
-0.0008899451698669811 
-6.624545588266231e-7 
4.707391140866428e-6 
3.4904880671417935e-5 
-8.34732793649167e-5 
-1.5168627698355807e-5 
1.015639086314006e-5 
-0.00012724465276225925 
0.000447764893199599 
0.05178674210893682 
-8.655034531844079e-6 
-5.449946401211997e-7 
4.3031837331885674e-5 
0.00022207827898879223 
2.6601656788794803e-5 
1.8453665366580107e-6 
1.6754130901944817e-5 
-0.00031627225156627116 
1.6077006368859204e-7 
-2.1155216077698903e-6 
-0.00014231186023138295 
-0.00016650351241493454 
2.347333107555846e-7 
8.947698329094966e-5 
-0.00028772887457005094 
1.0673805671597631e-5 
-2.000591222292869e-6 
-9.784475049713627e-7 
-0.00018303947123552022 
0.00037960775608924364 
7.742424012418997e-7 
2.7306060627803012e-5 
0.0003618544683676136 
0.0004936964922283952 
-2.9015620071943587e-6 
6.85014412067175e-6 
6.449059409234063e-6 
0.0003404633327718608 
0.00039216449787892496 
-2.4312460939619507e-6 
-0.0009025626681050057 
0.09035959470252238 
6.168513921309921e-8 
-7.443644136804199e-5 
-7.281559315447789e-5 
0.2845667366422962 
2.0761652167041725e-6 
-2.5912638078226488e-5 
-0.00023567043653276723 
0.6042386541218262 
2.6698855664285816e-5 
-0.00042846376501088723 
-5.962361163860263e-7 
-7.008894343804638e-6 
8.633733476585747e-7 
-5.803882301579652e-5 
-0.0006552419229551893 
8.848434108911044e-8 
7.300299030388886e-5 
0.0004304472795435535 
0.11625841004858394 
2.9122724201778506e-6 
3.933019156606703e-6 
8.053500130102538e-5 
0.020680799146412306 
0.00010462689793545801 
-2.0461573003896047e-5 
-3.3225175374635605e-5 
0.008747799041395504 
7.143225339166783e-7 
0.0001416024563199767 
0.0015249988044845973 
0.00018514848685124595 
-1.7753264199057706e-5 
-2.881024002874216e-6 
2.8399831433534665e-5 
-3.521804604505901e-5 
9.390836182730565e-6 
-0.00011143371827384469 
0.0006779690467983682 
1.2170256623485065e-6 
1.486747883880667e-6 
2.0115130189793494e-6 
-4.233091781002916e-7 
-0.0001030392879714259 
0.006608091347700711 
0.00035287835594720394 
-4.957093148451094e-6 
-6.257840840199779e-5 
0.00021771484034554525 
-7.5979088455170555e-6 
-1.2648558603997632e-5 
-0.0006419126228741431 
0.0034842293134780093 
-2.928850225084497e-6 
-5.822723072389865e-6 
-7.4077300456244e-5 
0.01909005728140777 
-2.7307977545694593e-6 
-1.0128579075881571e-5 
-0.0001152134171799673 
0.000517711346008082 
9.647743516975562e-6 
-4.9005122311811506e-5 
0.0007330888153533033 
0.010951751458674696 
-4.9167968244748784e-6 
6.135339098844299e-5 
-0.00016392231744010593 
0.07827718838616929 
-7.990910199403061e-7 
-8.95826320402893e-5 
0.0009891149466040557 
-1.6156813561599825e-6 
4.325290729906762e-6 
4.447721011357641e-6 
-0.00033200764350767314 
-0.00013091165483374842 
5.0675248273936144e-5 
-0.00026572894727432795 
-1.3776582581892134e-7 
-5.534148312702001e-6 
2.7050304858910967e-6 
5.604965925452166e-5 
0.0004678317044222905 
0.019804759746772115 
-1.8327446085416892e-5 
-0.00024105585694325613 
-5.225391832763215e-7 
5.905150784711342e-6 
0.019252800602590124 
1.6430508221970808e-5 
4.885938932955055e-6 
-0.00020041636194912323 
-0.00013555468211497645 
1.0385156918170028e-6 
-0.00021251837874077496 
-2.3512840629735473e-5 
-0.00026111759231414 
0.12309140824637292 
-1.3224665956374125e-6 
9.076294409351469e-6 
-8.968134529239722e-5 
-0.0003552957450366702 
-1.9147576251058933e-6 
-1.625367446816302e-5 
0.00012452530966490215 
-3.831837406171602e-5 
0.0017656803331970365 
-3.650336474336437e-5 
5.536175608038343e-6 
9.692650506770916e-6 
-1.6678458248653002e-6 
-5.401993663434269e-6 
-8.413954815671273e-5 
0.0006675180814586043 
4.147122996570717e-8 
-5.747404282684119e-5 
0.00032004473510932125 
-2.928796741161128e-6 
-1.8603732993892428e-5 
-5.0201406034590535e-5 
2.272814716240094e-5 
-2.2535237310890813e-7 
-1.892447606358997e-6 
0.001022185711363968 
0.017716267754411905 
-5.598617289555623e-6 
-0.00011069359880001643 
-6.399736325589309e-6 
0.35179863947802653 
3.994912146595666e-5 
-2.038852348490971e-6 
1.239551740253202e-5 
-1.6505548963133745e-5 
0.00013713341626486836 
0.3162402091337755 
2.7709801621940727e-6 
-2.6346826020508725e-6 
-9.519538606468089e-5 
0.00015100573890765136 
0.5603785240282311 
7.459956532470168e-8 
6.608007270758827e-5 
-6.738927440711473e-6 
-1.6765582803893388e-5 
1.150115546896496e-5 
-1.64262164434373e-5 
-3.0920361631367317e-5 
-9.248824467228888e-5 
0.0005164910458151149 
-2.045966636148762e-6 
-3.899868048987211e-6 
-2.514062659925041e-5 
-5.507836973610449e-5 
3.853123879186181e-7 
1.3196395451736594e-5 
9.248476811153001e-7 
5.993855122685281e-6 
-0.0002043295408697717 
0.07700396589489955 
4.6590794300672896e-5 
0.00016344165963624743 
0.00012205741543625357 
-7.878624165154022e-7 
0.00013058592147271187 
0.0003405787324330075 
0.09870540816007592 
-3.2550232238415076e-6 
1.1644108272842632e-6 
-3.104337330042605e-5 
-0.00039912056689264094 
0.047222795308859596 
9.042424931865095e-6 
0.0069938861296732205 
-0.00021569932911594695 
-0.0012242394403753016 
8.117023226754625e-7 
-0.00011613454311721067 
-1.2378446929103755e-6 
-3.4424318791043015e-6 
1.861723743327456e-5 
-0.00016698877964064045 
0.003915148637629394 
1.0007559328084862e-8 
1.4015596767134574e-6 
7.559083434396303e-5 
0.0007498147319309182 
-2.8304570709762167e-6 
-2.5693520875768395e-6 
3.0482662646542222e-5 
-4.734556469162116e-5 
5.343894443622023e-5 
-5.964478369992743e-5 
-0.00022244505584904836 
-6.749780118090577e-7 
-6.267535574350552e-6 
-4.428180926724808e-5 
2.642812641299562e-5 
-8.723635818691657e-7 
-5.919147909018347e-6 
1.2812901826980677e-6 
-3.9953053813103186e-5 
-0.0001518001170869587 
0.2820432501463795 
-5.948997400196591e-6 
0.0007093310108258659 
0.21490849850190444 
0.015810264025148013 
0.00047679382934735857 
-1.6825999539206227e-6 
-2.2607042705683935e-5 
-5.0105736021210724e-5 
0.3593074205113865 
-1.144074417696423e-7 
8.313068296536337e-5 
0.0005044023646710813 
0.0023220727910202386 
4.0011138229032055e-5 
8.494419793618084e-6 
1.9256612413685046e-6 
-0.0003716276756116982 
0.004355567097235405 
-0.00012556636336014592 
3.948849642492433e-5 
-1.2011547926294278e-6 
-1.4671426638382546e-5 
0.0007644927202591961 
1.9377464352701795e-6 
-4.302050725589971e-5 
0.0016126261907953145 
0.154894644607997 
-1.6425157600928177e-5 
-0.0002725748902503467 
-0.0005511718650609355 
-5.744760386827584e-7 
-0.0001823745832555308 
0.00586777927317035 
-2.6864290165977545e-5 
-1.6488562754090352e-5 
0.0008476669361965407 
0.00820813900293955 
3.1567050712564354e-5 
0.00040341555411880717 
-4.0132767442173214e-5 
-2.5285041041146502e-6 
-7.45769800550392e-7 
4.4099587763767565e-6 
-0.00012577298119972608 
0.014740503519078036 
-4.911676825872896e-6 
-5.366053217273676e-5 
0.00033756847776686394 
1.5119398679755994e-5 
2.908653774011983e-5 
-0.00011677086606354134 
0.10187143314171977 
-1.021701647557506e-5 
-3.299551231741779e-5 
0.00033686922245256207 
-1.7525300434517432e-6 
-6.9247655958292935e-6 
-9.494285009661499e-6 
-4.094695860091242e-5 
-0.0006175255597432535 
1.5019260038069748e-6 
7.878904096865903e-6 
-3.636874800067981e-5 
-0.000874483544728602 
-9.903055077175714e-7 
-1.726188955359551e-5 
4.3559975272578965e-5 
0.0017172125621719727 
-2.7669572266490017e-6 
0.0011412817694188685 
0.020910689835475324 
-3.553713357467026e-5 
-0.0005845913420747765 
3.724781926930399e-5 
-2.283017105108843e-6 
-4.141817374582295e-6 
-2.7356018129436954e-5 
-0.00020501583498482246 
-5.5642645338916107e-8 
-6.583496682877138e-6 
-0.00011536882787461102 
0.0008898191949865206 
0.06946599105604982 
-2.0370423407186194e-6 
0.00013881340620293804 
0.1533895407051329 
0.00029055491430058126 
-0.00010859116084142201 
-8.735931550384829e-7 
-0.00029276971717800347 
0.0014857088107536533 
7.563533675080234e-7 
5.979671285287005e-5 
-5.403857567299979e-6 
-0.00019664155434890356 
-0.000359090830016693 
-1.0560300855054126e-6 
-8.733147703101794e-5 
0.0016903330612985845 
0.016587900165125312 
-9.389325116871761e-6 
3.356903734776089e-5 
0.00016031073820285018 
0.002364909256581586 
1.3754367848397578e-6 
3.624880453591197e-6 
1.6657897000596001e-6 
-1.807947914108189e-5 
0.00034050569210059266 
-0.00015122725751645793 
0.00017318152296433458 
0.0013919034625561814 
0.0025421828577950963 
0.004924091522580335 
0.0019268339475328365 
0.00026346719258640345 
0.0014972937039033202 
-2.13166756159942e-5 
1.3233432010015951e-5 
1.1881813889176976e-5 
0.00025863464677589043 
-0.0002035667489192578 
-6.602471447397486e-5 
0.3173576307486364 
0.19399597635428445 
0.202958036040376 
-5.492107661977494e-6 
-2.425516597634128e-6 
-9.024862850225189e-6 
-5.444973683664248e-6 
1.0491814474629498e-5 
0.007692756611003578 
0.0014470946807123982 
-2.893629606287652e-5 
-2.7718856643852013e-5 
0.0014346991746368874 
0.0028864509898486033 
-8.620930367791758e-6 
-2.151175346029666e-5 
1.1887388747802476e-5 
-2.4005429020864575e-5 
0.0002425381599649873 
-0.00014078612403094096 
0.18486580204526704 
0.11444975413589815 
0.0014391608636644105 
0.008780825663354226 
0.0037002519338384136 
2.2162740315336356e-6 
7.036703928812632e-6 
-9.141183861812678e-6 
2.7844946825481584e-6 
1.0843621348763536e-6 
9.63955775243133e-6 
2.4117593916154547e-7 
1.3756236653024158e-5 
4.3956677316142955e-5 
-0.0001120194151141938 
0.00010057524686788756 
0.00021190862637096436 
-0.00013887564179319267 
0.00020760627084526746 
2.2936766451598906e-7 
-1.178125154759423e-6 
8.644236373334966e-7 
3.516400350437446e-7 
3.921360464860087e-6 
2.9563367092662825e-5 
3.0637687731214376e-5 
0.0002473741137578625 
-3.9591861138614844e-5 
-1.0161577150990139e-8 
9.375855672783749e-7 
1.288597531240098e-5 
-6.756782259141286e-8 
0.00014887839802598562 
-6.692264328424545e-5 
-9.836828998309127e-5 
-0.00015469074603664527 
1.950857878842588e-6 
1.4007354987680054e-7 
2.4693422271406864e-6 
-2.7693702596286445e-6 
-3.0669182704951503e-6 
0.0001132126093407912 
-4.771610087996618e-6 
-4.5810726001202756e-5 
3.9336334398447513e-7 
-0.0002565543764374252 
-0.00013910965397163 
0.4145500111025823 
0.2491769723842197 
0.30946032786984773 
2.993545150043811e-5 
5.053341494352943e-5 
8.59545679927128e-5 
0.00026168076983315586 
-0.0003033586761402533 
0.00014971821778565503 
-1.7065899636874596e-6 
6.635623784550013e-7 
-1.5409486519211106e-6 
-1.2902405829726477e-5 
3.4912994498081723e-6 
3.0288900715371786e-6 
6.464937962691534e-6 
4.592949304014085e-5 
-9.904090726238637e-5 
0.00028648275160847344 
-0.000198833539009139 
6.0044580239772235e-5 
-6.536108167853743e-7 
-9.265934453935145e-7 
-2.6386098604861607e-6 
2.6305063038161935e-6 
-1.5318793064143662e-6 
-3.3204298508089464e-7 
6.958039918035224e-7 
8.582115654668267e-5 
-1.3824264793154514e-5 
-5.536876745968703e-7 
2.956111828200799e-5 
-1.7448096697927615e-5 
-2.5592234051300912e-6 
1.7536669296566687e-6 
-7.823776002970279e-6 
-6.306368898666707e-6 
-8.389654821792388e-6 
-0.000325973094722073 
1.344263550585876e-5 
4.492563710210253e-6 
4.382338761041345e-7 
1.5920755819852012e-6 
-3.7784805340465896e-6 
9.828381445722063e-6 
-1.685601397591719e-6 
-2.438054474000234e-6 
9.450346618407717e-6 
-2.329068872053503e-6 
-5.6037597651837896e-5 
0.00030002271302706284 
-0.00019671242871570718 
-6.799340426849307e-7 
-1.4319687934617648e-7 
-5.647921785678263e-6 
1.08499278076043e-5 
-7.664231665088711e-5 
2.564038739632105e-5 
-0.00023198268819598974 
8.429275582829177e-5 
-8.915240338045538e-7 
4.203991174555925e-7 
3.70190502973726e-7 
-1.4077161737639223e-6 
-6.315472460721765e-6 
1.6794686744113804e-5 
0.0003239760585002192 
0.0001258462135705903 
0.17010367023604941 
0.11506357548638153 
5.842878414650136e-6 
-3.839737793407248e-6 
-2.8923296565246207e-6 
-3.841803628272003e-5 
-2.159702551472634e-5 
4.180854460602669e-5 
-0.0011547469308617873 
6.72990632138241e-5 
0.001057883656210444 
8.655278368843332e-7 
2.52208676395834e-6 
-1.0872093972189187e-5 
0.005946849309488777 
0.0004349157191683433 
-2.0979968536900515e-6 
-4.041556011726359e-6 
-9.118957686907567e-5 
4.323657458924508e-5 
0.00038871511835276263 
-3.94478791183803e-5 
-1.0813798880149508e-6 
9.755064666496984e-7 
9.879164713645833e-7 
7.086929224229997e-5 
-0.00010861142990818244 
0.0005095013185792152 
0.00013972124334094203 
-0.0007549718818386675 
0.0007295466736071026 
0.0016279821675128016 
0.00015014021112057092 
5.274315523112131e-6 
-5.94618085530848e-6 
5.319131796565853e-6 
7.464690621770473e-5 
0.00013404080283767238 
-9.523879620427398e-5 
0.0001873935524325999 
0.0003047153592429696 
-0.00016967916471899617 
3.4893017135107655e-7 
1.2025066926639483e-6 
7.121037273431347e-7 
-5.790025940625286e-6 
1.2415360211914322e-5 
7.772935611217925e-6 
8.123413784506715e-6 
-3.3068813794058477e-6 
-2.953432610571061e-5 
1.539636570976969e-5 
-0.0006575479158747929 
0.00042458270399021444 
2.66334451535424e-7 
2.646062108902907e-6 
1.7924928309440267e-5 
8.625967576805166e-6 
6.422651923099044e-7 
-1.1000683728613934e-5 
0.0001185019862745401 
8.582198147516768e-5 
-4.9661904974974154e-5 
0.0004243570338970176 