# vtk DataFile Version 3.0 
Unstructured Grid 
ASCII 
DATASET UNSTRUCTURED_GRID
POINTS 2173 float 
-0.5 -0.5 0  
0.5 -0.5 0  
0.5 0.5 0  
-0.5 0.5 0  
-0.475 -0.5 0  
-0.45 -0.5 0  
-0.425 -0.5 0  
-0.4 -0.5 0  
-0.375 -0.5 0  
-0.35 -0.5 0  
-0.325 -0.5 0  
-0.3 -0.5 0  
-0.275 -0.5 0  
-0.25 -0.5 0  
-0.225 -0.5 0  
-0.2 -0.5 0  
-0.175 -0.5 0  
-0.15 -0.5 0  
-0.125 -0.5 0  
-0.1 -0.5 0  
-0.075 -0.5 0  
-0.05 -0.5 0  
-0.025 -0.5 0  
-1.3761214e-12 -0.5 0  
0.025 -0.5 0  
0.05 -0.5 0  
0.075 -0.5 0  
0.1 -0.5 0  
0.125 -0.5 0  
0.15 -0.5 0  
0.175 -0.5 0  
0.2 -0.5 0  
0.225 -0.5 0  
0.25 -0.5 0  
0.275 -0.5 0  
0.3 -0.5 0  
0.325 -0.5 0  
0.35 -0.5 0  
0.375 -0.5 0  
0.4 -0.5 0  
0.425 -0.5 0  
0.45 -0.5 0  
0.475 -0.5 0  
0.5 -0.475 0  
0.5 -0.45 0  
0.5 -0.425 0  
0.5 -0.4 0  
0.5 -0.375 0  
0.5 -0.35 0  
0.5 -0.325 0  
0.5 -0.3 0  
0.5 -0.275 0  
0.5 -0.25 0  
0.5 -0.225 0  
0.5 -0.2 0  
0.5 -0.175 0  
0.5 -0.15 0  
0.5 -0.125 0  
0.5 -0.1 0  
0.5 -0.075 0  
0.5 -0.05 0  
0.5 -0.025 0  
0.5 -1.3761214e-12 0  
0.5 0.025 0  
0.5 0.05 0  
0.5 0.075 0  
0.5 0.1 0  
0.5 0.125 0  
0.5 0.15 0  
0.5 0.175 0  
0.5 0.2 0  
0.5 0.225 0  
0.5 0.25 0  
0.5 0.275 0  
0.5 0.3 0  
0.5 0.325 0  
0.5 0.35 0  
0.5 0.375 0  
0.5 0.4 0  
0.5 0.425 0  
0.5 0.45 0  
0.5 0.475 0  
0.475 0.5 0  
0.45 0.5 0  
0.425 0.5 0  
0.4 0.5 0  
0.375 0.5 0  
0.35 0.5 0  
0.325 0.5 0  
0.3 0.5 0  
0.275 0.5 0  
0.25 0.5 0  
0.225 0.5 0  
0.2 0.5 0  
0.175 0.5 0  
0.15 0.5 0  
0.125 0.5 0  
0.1 0.5 0  
0.075 0.5 0  
0.05 0.5 0  
0.025 0.5 0  
1.3761214e-12 0.5 0  
-0.025 0.5 0  
-0.05 0.5 0  
-0.075 0.5 0  
-0.1 0.5 0  
-0.125 0.5 0  
-0.15 0.5 0  
-0.175 0.5 0  
-0.2 0.5 0  
-0.225 0.5 0  
-0.25 0.5 0  
-0.275 0.5 0  
-0.3 0.5 0  
-0.325 0.5 0  
-0.35 0.5 0  
-0.375 0.5 0  
-0.4 0.5 0  
-0.425 0.5 0  
-0.45 0.5 0  
-0.475 0.5 0  
-0.5 0.475 0  
-0.5 0.45 0  
-0.5 0.425 0  
-0.5 0.4 0  
-0.5 0.375 0  
-0.5 0.35 0  
-0.5 0.325 0  
-0.5 0.3 0  
-0.5 0.275 0  
-0.5 0.25 0  
-0.5 0.225 0  
-0.5 0.2 0  
-0.5 0.175 0  
-0.5 0.15 0  
-0.5 0.125 0  
-0.5 0.1 0  
-0.5 0.075 0  
-0.5 0.05 0  
-0.5 0.025 0  
-0.5 1.3761214e-12 0  
-0.5 -0.025 0  
-0.5 -0.05 0  
-0.5 -0.075 0  
-0.5 -0.1 0  
-0.5 -0.125 0  
-0.5 -0.15 0  
-0.5 -0.175 0  
-0.5 -0.2 0  
-0.5 -0.225 0  
-0.5 -0.25 0  
-0.5 -0.275 0  
-0.5 -0.3 0  
-0.5 -0.325 0  
-0.5 -0.35 0  
-0.5 -0.375 0  
-0.5 -0.4 0  
-0.5 -0.425 0  
-0.5 -0.45 0  
-0.5 -0.475 0  
-0.002115384 -0.00023065208 0  
-0.20714286 -0.20714286 0  
0.20714286 -0.20714286 0  
0.20714286 0.20714286 0  
-0.20714286 0.20714286 0  
-0.28155318 -0.0017231192 0  
0.0017231192 -0.28155318 0  
0.28155318 0.0017231192 0  
-0.0017231192 0.28155318 0  
0.3319978 -0.33098683 0  
0.33098683 0.3319978 0  
-0.3319978 0.33098683 0  
-0.33098683 -0.3319978 0  
-0.14015679 -0.06698606 0  
0.06698606 -0.14015679 0  
0.14015679 0.06698606 0  
-0.06698606 0.14015679 0  
-0.1387125 -0.34573975 0  
0.34573975 -0.1387125 0  
0.1387125 0.34573975 0  
-0.34573975 0.1387125 0  
0.14046866 -0.34602854 0  
0.34602854 0.14046866 0  
-0.14046866 0.34602854 0  
-0.34602854 -0.14046866 0  
-0.05869875 -0.16617337 0  
0.18217777 -0.061504476 0  
0.062312964 0.18362015 0  
-0.18362015 0.062312964 0  
-0.034321424 -0.38563195 0  
0.38563195 -0.034321424 0  
0.034321424 0.38563195 0  
-0.38563195 0.034321424 0  
0.39586002 -0.2428538 0  
0.2428538 0.39586002 0  
-0.39586002 0.2428538 0  
-0.2428538 -0.39586002 0  
0.23688246 -0.38952246 0  
0.38952246 0.23688246 0  
-0.23688246 0.38952246 0  
-0.38952246 -0.23688246 0  
-0.24287231 -0.09948847 0  
0.09948847 -0.24287231 0  
0.24287231 0.09948847 0  
-0.09948847 0.24287231 0  
-0.11560815 -0.24300627 0  
0.24300627 -0.11560815 0  
0.11560815 0.24300627 0  
-0.24300627 0.11560815 0  
-0.40192315 -0.4008276 0  
0.4008276 -0.40192315 0  
0.40192315 0.4008276 0  
-0.4008276 0.40192315 0  
0.06409326 -0.40289903 0  
0.40289903 0.06409326 0  
-0.06409326 0.40289903 0  
-0.40289903 -0.06409326 0  
0.2962961 -0.23982804 0  
0.23982804 0.2962961 0  
-0.2962961 0.23982804 0  
-0.23982804 -0.2962961 0  
-0.28087237 -0.21196799 0  
0.21196799 -0.28087237 0  
0.28087237 0.21196799 0  
-0.21196799 0.28087237 0  
-0.0901279 0.007867504 0  
-0.05002927 -0.07494272 0  
0.0873353 -0.009871756 0  
0.0071518295 0.09216282 0  
-0.14120433 -0.1484696 0  
-0.14581114 0.13960092 0  
0.1458264 -0.14505939 0  
0.13960092 0.14581114 0  
0.41838804 -0.3182741 0  
0.3182741 0.41838804 0  
-0.41838804 0.3182741 0  
-0.3182741 -0.41838804 0  
0.32118136 -0.41712493 0  
0.41712493 0.32118136 0  
-0.32118136 0.41712493 0  
-0.41712493 -0.32118136 0  
-0.19707234 -0.014843048 0  
0.018050108 -0.20183705 0  
0.19707234 0.014843048 0  
-0.014843048 0.19707234 0  
-0.10938372 -0.41847488 0  
0.41847488 -0.10938372 0  
0.10938372 0.41847488 0  
-0.41847488 0.10938372 0  
0.15773043 -0.4267032 0  
0.4267032 0.15773043 0  
-0.15773043 0.4267032 0  
-0.4267032 -0.15773043 0  
-0.3204562 -0.07174808 0  
0.07174808 -0.3204562 0  
0.3204562 0.07174808 0  
-0.07174808 0.3204562 0  
0.02801032 -0.07269879 0  
-0.31817523 0.069836795 0  
-0.069836795 -0.31817523 0  
0.31817523 -0.069836795 0  
0.069836795 0.31817523 0  
0.43106207 -0.17757268 0  
0.17757268 0.43106207 0  
-0.43106207 0.17757268 0  
-0.17757268 -0.43106207 0  
0.0703783 0.071201205 0  
-0.051593844 0.064346604 0  
0.099701226 -0.08333426 0  
0.2863281 -0.17248559 0  
0.17248559 0.2863281 0  
-0.2863281 0.17248559 0  
-0.17248559 -0.2863281 0  
-0.2341888 0.04979648 0  
-0.049194112 -0.231281 0  
0.23358595 -0.04946041 0  
0.04979648 0.2341888 0  
-0.009939441 -0.13691185 0  
-0.26560438 -0.17864102 0  
0.17864102 -0.26560438 0  
0.26560438 0.17864102 0  
-0.17864102 0.26560438 0  
0.013302229 -0.43510666 0  
0.43510666 0.013302229 0  
-0.013302229 0.43510666 0  
-0.43510666 -0.013302229 0  
0.09432827 0.114700764 0  
-0.11539384 0.093188405 0  
-0.3413634 -0.005100272 0  
0.005100272 -0.3413634 0  
0.3413634 0.005100272 0  
-0.005100272 0.3413634 0  
-0.19817708 -0.3508856 0  
0.3508856 -0.19817708 0  
0.19817708 0.3508856 0  
-0.3508856 0.19817708 0  
-0.34100306 -0.27216324 0  
0.27216324 -0.34100306 0  
0.34100306 0.27216324 0  
-0.27216324 0.34100306 0  
-0.20269383 -0.14403741 0  
0.14393912 -0.2028372 0  
0.2026342 0.14393856 0  
-0.14393856 0.2026342 0  
-0.1030633 -0.10524017 0  
-0.4394695 -0.104853734 0  
0.104853734 -0.4394695 0  
0.4394695 0.104853734 0  
-0.104853734 0.4394695 0  
-0.44156647 -0.44156647 0  
0.44156647 -0.44156647 0  
0.44156647 0.44156647 0  
-0.44156647 0.44156647 0  
-0.2683254 -0.44465622 0  
0.44465622 -0.2683254 0  
0.2683254 0.44465622 0  
-0.44465622 0.2683254 0  
0.2654342 -0.4435478 0  
0.4435478 0.2654342 0  
-0.2654342 0.4435478 0  
-0.4435478 -0.2654342 0  
-0.27373606 -0.34534052 0  
0.34534052 -0.27373606 0  
0.27373606 0.34534052 0  
-0.34534052 0.27373606 0  
-0.05307205 -0.4481981 0  
0.4481981 -0.05307205 0  
0.05307205 0.4481981 0  
-0.4481981 0.05307205 0  
-0.35614902 -0.19390328 0  
0.19390328 -0.35614902 0  
0.35614902 0.19390328 0  
-0.19390328 0.35614902 0  
-0.14022674 -0.012452113 0  
0.14171903 0.011271359 0  
-0.01125192 0.14089845 0  
-0.19556868 -0.06932378 0  
0.070511825 -0.19668652 0  
0.19556868 0.06932378 0  
-0.06932378 0.19556868 0  
-0.24951252 -0.039742906 0  
0.04037078 -0.2503529 0  
0.24951252 0.039742906 0  
-0.039742906 0.24951252 0  
0.44100407 -0.36164257 0  
0.36164257 0.44100407 0  
-0.44100407 0.36164257 0  
-0.36164257 -0.44100407 0  
-0.4451273 -0.36589316 0  
0.36589316 -0.4451273 0  
0.4451273 0.36589316 0  
-0.36589316 0.4451273 0  
0.1121834 -0.30242515 0  
0.30242515 0.1121834 0  
-0.1121834 0.30242515 0  
-0.30242515 -0.1121834 0  
-0.115146436 -0.19087775 0  
0.19190264 -0.11309679 0  
0.11520548 0.19263776 0  
-0.19263776 0.11520548 0  
-0.08287991 -0.37025127 0  
0.37025127 -0.08287991 0  
0.08287991 0.37025127 0  
-0.37025127 0.08287991 0  
0.23791528 -0.24381089 0  
0.24381089 0.23791528 0  
-0.23791528 0.24381089 0  
-0.24381089 -0.23791528 0  
-0.44626984 -0.21174923 0  
0.21174923 -0.44626984 0  
0.44626984 0.21174923 0  
-0.21174923 0.44626984 0  
0.35174853 -0.37705234 0  
0.37705234 0.35174853 0  
-0.35174853 0.37705234 0  
-0.37705234 -0.35174853 0  
-0.048605647 -0.023262763 0  
-0.1551113 -0.21381997 0  
0.21381997 -0.1551113 0  
0.1551113 0.21381997 0  
-0.21381997 0.1551113 0  
-0.29403278 -0.30027482 0  
0.30027482 -0.29403278 0  
0.29403278 0.30027482 0  
-0.30027482 0.29403278 0  
0.12173745 -0.390654 0  
0.390654 0.12173745 0  
-0.12173745 0.390654 0  
-0.390654 -0.12173745 0  
-0.12236246 -0.2979882 0  
0.2979882 -0.12236246 0  
0.12236246 0.2979882 0  
-0.2979882 0.12236246 0  
-0.0945969 -0.046371013 0  
0.035276897 -0.027358124 0  
-0.0076714605 0.051946 0  
-0.30809116 -0.17165439 0  
0.17165439 -0.30809116 0  
0.30809116 0.17165439 0  
-0.17165439 0.30809116 0  
-0.16592422 -0.10879113 0  
0.10700909 -0.1687818 0  
0.16864619 0.10664837 0  
-0.10664837 0.16864619 0  
-0.16784625 -0.38069874 0  
0.38069874 -0.16784625 0  
0.16784625 0.38069874 0  
-0.38069874 0.16784625 0  
-0.4563872 -0.05993889 0  
0.05993889 -0.4563872 0  
0.4563872 0.05993889 0  
-0.05993889 0.4563872 0  
0.31103167 -0.37412483 0  
0.37412483 0.31103167 0  
-0.31103167 0.37412483 0  
-0.37412483 -0.31103167 0  
-0.3909646 -0.012754724 0  
0.012754724 -0.3909646 0  
0.3909646 0.012754724 0  
-0.012754724 0.3909646 0  
0.44915667 -0.21679194 0  
0.21679194 0.44915667 0  
-0.44915667 0.21679194 0  
-0.21679194 -0.44915667 0  
0.045831423 0.12033131 0  
-0.12662303 0.045442794 0  
-0.3107799 -0.37355793 0  
0.37355793 -0.3107799 0  
0.3107799 0.37355793 0  
-0.37355793 0.3107799 0  
0.04152367 0.021693805 0  
-0.08040017 -0.2675595 0  
0.26794365 -0.08044455 0  
0.080500565 0.2680441 0  
-0.2680441 0.080500565 0  
-0.13753757 -0.45578164 0  
0.45578164 -0.13753757 0  
0.13753757 0.45578164 0  
-0.45578164 0.13753757 0  
-0.05507968 -0.12135967 0  
0.14172421 -0.09428923 0  
0.2571752 -0.19664502 0  
[...]
POINT_DATA 2173 
SCALARS T float 
LOOKUP_TABLE default 
-6.627358090650362e-20 
2.189287159686062e-19 
-1.0158980282171293e-18 
-6.4040987020240735e-18 
-1.5075965592264667e-18 
1.4952288136873734e-18 
5.739997636691609e-18 
2.1963791388086297e-18 
1.6612113171393347e-18 
1.1643356185008102e-20 
6.377293717087044e-19 
8.640078420948746e-18 
2.517212584762203e-18 
-2.3667241675928962e-18 
1.452983137344184e-18 
6.453647974270843e-19 
3.634967443488906e-19 
3.2313804880175837e-18 
4.189867066740269e-18 
1.0311029619955215e-18 
8.129512105621979e-19 
-1.012486124513364e-18 
7.976005054299994e-18 
-9.880418628033508e-18 
1.3809186168882666e-17 
-1.9320901827147368e-17 
1.2141984208963375e-17 
-1.3300303796599762e-17 
2.6921177096604e-18 
-4.008572359944802e-18 
6.134125266360726e-18 
-6.5797961641878326e-18 
7.472991390927286e-18 
1.4272388560714684e-17 
-8.789691702936813e-18 
3.3223877889933286e-18 
-1.2412334145097564e-17 
-5.361197749726268e-18 
-1.1301278383980791e-17 
-1.1144567745855584e-17 
-1.0820359015067114e-17 
-5.101473057695716e-18 
-3.984493465303555e-18 
5.071584606911405e-18 
5.003997741045425e-18 
1.498926454980645e-17 
1.407728348852861e-17 
2.3401518963755263e-17 
2.2449300360475478e-17 
2.1571651773589567e-17 
2.839441509835076e-17 
5.718408201364695e-17 
2.9392393535918517e-17 
3.148048503289357e-17 
4.974942673823862e-18 
4.70501371448346e-17 
3.175395055967245e-20 
5.1667806597652083e-17 
-3.663579517776178e-17 
6.770136327915174e-17 
2.7116695461932967e-17 
-7.734063675187125e-17 
1.9444920403708293e-18 
5.621246214381491e-17 
-1.1567128041840079e-16 
1.7523900691126945e-16 
-1.431477342193247e-16 
-9.112893003072331e-17 
6.814001934751218e-17 
-1.8215986944085422e-16 
1.4790506916334189e-16 
-1.0119443447803686e-16 
-1.4867516510794843e-16 
7.738776130641087e-17 
-3.4178578284197204e-16 
-1.4455300594137962e-17 
-1.9928157243563185e-16 
-9.556287586051136e-17 
-2.766576073379548e-17 
-8.017518357616865e-17 
-1.9960845550596566e-17 
4.901575495292151e-17 
-5.4672867002457894e-17 
-5.8795039743151e-18 
5.792327690146675e-17 
-7.763192451348273e-17 
8.373995808930693e-18 
1.3208349002578373e-16 
-1.1181046856031196e-16 
2.2743930465648527e-16 
-5.02973543294176e-16 
3.9474427033116445e-16 
-6.53240949077446e-17 
-7.37490380325321e-17 
-2.0821403708462253e-17 
-3.316313847646286e-17 
-4.3846012740052336e-17 
-2.308833660184746e-16 
2.77741000896086e-16 
-8.35684087695234e-17 
-7.27574350609034e-16 
5.041172935403645e-16 
-2.68109419614596e-16 
-4.2986896375207024e-18 
7.538310297963877e-16 
-1.7749660607926836e-15 
-5.900974501217384e-16 
-2.4303097845977467e-16 
-4.1314338224875606e-16 
-5.774470823028053e-17 
-2.43067771739038e-16 
9.242779340146716e-17 
2.257603819877913e-16 
-5.468765852078171e-16 
-1.3814457425919239e-16 
8.504017313473389e-17 
8.363062956805614e-17 
-1.8852531967874327e-17 
2.158209855549483e-16 
1.0048868433452669e-17 
-8.973946051259318e-17 
7.186672268889449e-17 
6.924099325976536e-17 
-3.7031051479526644e-16 
1.7842252158286221e-16 
5.597638779843022e-17 
2.33932230474554e-16 
-1.0066081061954625e-16 
8.38589670421317e-16 
-5.196601317466173e-16 
2.4467833187938076e-16 
1.8456920519609907e-16 
1.0442375156502344e-16 
-2.2244634953334218e-17 
1.877382461493e-16 
-9.075089287839414e-17 
1.458904368177959e-16 
-9.236898350814108e-17 
4.861204102560852e-17 
2.2725149357737732e-17 
-5.1096613603146234e-17 
4.257269171436022e-17 
-3.0377017462447455e-17 
8.742755300434696e-20 
-2.6219154959804866e-19 
-3.010638315662108e-18 
-4.1589107644830483e-19 
1.6144701394770304e-19 
-1.575976562229638e-18 
4.62630565769297e-18 
-2.1715106114772007e-18 
3.804617389696115e-18 
4.3260705115986e-18 
-6.0577925236612196e-18 
-1.5194057139162745e-18 
-6.510060287562052e-19 
1.2003676102844342e-18 
-4.238420528284103e-18 
5.3586151960635763e-20 
1.6025484638678503e-18 
1.7035703971025545e-5 
-3.4109791847377076e-6 
-2.9443789956739636e-5 
0.0006063556642530372 
0.08594117169134471 
0.11706636992982586 
-8.382211558320235e-6 
9.558857884676321e-6 
-0.00043576674664308934 
-1.612792164462526e-5 
3.0149114074783658e-6 
0.00029216110639611624 
-7.559894931656214e-7 
0.003125245469922487 
-7.225730885099341e-6 
-5.49024899414776e-5 
0.005133191183289643 
5.4919192444117386e-8 
-3.898275813026987e-5 
0.0007407496165314726 
0.056073484326331906 
-6.2927396065874705e-6 
0.00014831467822188686 
-0.0008332567327178751 
-3.8537935965278514e-5 
1.8715876849909682e-6 
-3.0126480943273277e-5 
-3.68119426419373e-5 
0.35675833730012907 
7.543902250531497e-6 
-1.4254596659278077e-5 
-0.00042881948226361326 
0.009341884805322843 
-9.849606507786051e-6 
0.00022824343819516607 
0.00048009608023662036 
-6.973011587129767e-7 
-2.339743162156691e-6 
-0.000107026177009168 
7.508676256867234e-5 
-2.5601302245086156e-6 
0.002925480267177223 
3.0467515629772995e-6 
-0.00011156004343695944 
0.0017608722277904732 
-5.6429174852747096e-8 
6.702559247680915e-6 
-0.0007882006811532987 
0.5398922068794743 
6.102132021968255e-7 
-8.010377224720178e-6 
-2.97568705322742e-5 
0.0006655443650764391 
-1.704784726772245e-5 
6.545154143798042e-5 
0.0005589544457509527 
-8.362913447403843e-5 
-3.3625719053196574e-5 
0.00018528535834095948 
0.014059114805851486 
-5.111457729509553e-7 
-2.274296623162544e-6 
-7.738832717479763e-6 
0.00012098665428602489 
0.0038937842989380674 
0.008023757088032279 
-7.705981190025188e-6 
4.74918967726882e-5 
-0.000770845139109575 
-1.903108825978674e-5 
0.15404931216263948 
2.75987419668478e-5 
-3.8990919533100424e-5 
-9.895318392068433e-6 
-4.874375340691927e-5 
0.0005025197186689385 
-1.5003503672349143e-6 
-1.9895885063164984e-5 
-1.850477374454848e-5 
-0.00021925810500658782 
-3.3648095799433217e-7 
0.09340521669613153 
-7.073438610516252e-6 
-7.084194957864976e-5 
0.00041062128313273336 
-1.2510032149208557e-6 
-1.7574491584464387e-5 
-0.00015162907746341334 
0.0019314900719386414 
6.96496002006409e-6 
-0.00010672074607904565 
-8.74237473319742e-5 
-2.7797373945644985e-6 
0.003944165327478213 
9.362233912321053e-6 
0.00011833307675021567 
-0.0020328290070365275 
-2.2240532052015252e-5 
0.17498360970229723 
-6.413161649241035e-7 
2.5993880751798218e-5 
-0.0008203409160270028 
-1.474816992653559e-5 
0.0004611665226196972 
0.00012603263078009327 
3.824666950480973e-6 
2.2549876741675092e-6 
0.0035763618860142686 
-3.881430877357682e-5 
1.7231532986560002e-5 
-1.3999510237925686e-5 
0.14178779071601172 
-1.1436422621613866e-6 
0.442507281798178 
-6.707763036645532e-6 
-9.957807038085661e-6 
-0.0011054439118880677 
4.85032665939565e-6 
-1.8578569781082932e-5 
-1.112453318528349e-5 
0.00012715983416194414 
0.004636914380172456 
5.8867589560946355e-6 
5.088405556273584e-7 
0.00012273819304859786 
-0.00010146827346994013 
-0.000384062679110219 
0.07360737289405346 
0.027144134615083818 
-1.7842360326242246e-6 
5.991146726085962e-5 
-0.0014692302552286498 
1.4394100838749524e-6 
-4.093375383383231e-5 
0.0006885161871522567 
0.010692756646963777 
1.9250847425879267e-7 
-1.5197256341954845e-5 
-2.378235718579904e-5 
0.0008917103376448848 
2.0753183359229678e-5 
9.973359509824502e-6 
0.00010009148452540294 
0.03368724917698408 
-6.171902969492246e-7 
-8.344467534360526e-6 
-4.9290461867928425e-6 
-0.00010949939956153225 
-0.0004144867057171307 
-3.123166724462603e-7 
7.947298323104934e-7 
-2.9380323913433066e-5 
0.00025152523710099357 
2.626585816637668e-7 
-1.9520667630407904e-5 
0.00011500010124168888 
0.0003250182810744781 
-6.752588748544704e-6 
1.540807662149771e-5 
0.000271326933879559 
-1.4581042315804239e-6 
-6.306937893322316e-7 
-4.06399793619902e-6 
0.00014501619325800127 
0.0024346126601215994 
-3.441627580541742e-6 
-2.3080193831072513e-5 
-0.0002706609377359053 
0.00013244737595278385 
1.7891316679152132e-7 
-1.3952555596686884e-5 
-9.943367410747613e-5 
0.00025096387598031106 
0.030237294479806918 
9.519017837768605e-6 
-0.0012084775126860884 
0.010541038047866758 
9.94990142241672e-6 
0.00014343598002361892 
0.0026198317369002656 
0.05026506642297874 
3.310233170159366e-6 
4.6680526563404635e-5 
0.002407659477963294 
-4.373078433804487e-6 
8.091169555507568e-6 
0.00041886123463854316 
2.4751359948353885e-6 
4.362881506899622e-7 
-7.941415612702903e-6 
5.9857212389483353e-5 
0.00022302207935011501 
2.0790705613540377e-6 
-7.93187835302527e-5 
-0.00030569827496396433 
0.00041713874866972263 
-5.517188889091775e-7 
-3.306706048109947e-5 
-0.0006085756906749134 
0.44381733776786075 
3.0655139561603064e-6 
3.1774892128213335e-5 
-0.00018020094648344266 
0.02966456491055512 
3.431691711240812e-5 
-0.00024197174593633115 
0.018543854404710052 
-8.702534479646232e-7 
2.5962774918430754e-6 
1.16353997493832e-5 
6.14414927858644e-5 
0.0002852032439632775 
7.52873389783965e-6 
-0.00011505632890290824 
-0.00026646024058283945 
-1.8682170932675949e-6 
0.0002528336620144883 
-2.7735846409307535e-7 
3.6155089717855224e-5 
-0.0004645251344247881 
0.3439421231752345 
-1.957528338377048e-6 
2.2520443459019694e-6 
0.00016763624781673274 
0.000709061957878343 
-4.965809844830643e-6 
-7.101304802227879e-5 
0.0008744193641154187 
-5.377198270028117e-5 
-1.2642636684417887e-6 
-4.665091601840174e-5 
0.001095295641385375 
0.25917243938626766 
0.0012730581035222022 
-1.0619202502700485e-5 
0.0003254110373354725 
-2.2823921885494526e-5 
-1.1932384037769122e-5 
7.353941159566196e-5 
0.000762281010903842 
0.00041163291738992807 
-1.5213124466883838e-5 
-0.00021104334814589298 
0.0261998795627255 
-3.891162822731989e-6 
-8.531982417910945e-6 
0.0001608651134904942 
0.007212153122100325 
-4.016596209280999e-5 
-1.4985995206555999e-5 
-6.420123951480471e-6 
0.0005241309263212347 
-1.7430410439760735e-6 
-0.00013552483887966355 
-0.00018997417909643618 
-1.3133143440636252e-6 
0.0020136481036653856 
-6.033204721191389e-6 
-9.023248627057982e-5 
-7.789091446467127e-5 
-2.148621656744707e-5 
1.9800234397288105e-5 
-0.00011685509313326718 
7.947271841632495e-7 
-0.00016487463494108568 
0.0747071155657002 
-2.426896892818274e-6 
-1.5128876658622543e-5 
0.00012840601383739585 
0.00014411851203817476 
7.833391331960758e-5 
8.405895255195898e-7 
-3.355042122945416e-5 
0.0006989664750205639 
0.46043299070092497 
-1.444347059761733e-6 
-1.6551836195601624e-5 
0.0002239636305004744 
0.0001455810171241709 
-6.945911586041112e-6 
7.845361311749378e-6 
-2.0901563883010664e-5 
-9.391761432789288e-5 
0.11151646188096045 
1.5639399661569044e-7 
-5.810335761027225e-5 
1.3752062256800688e-6 
-8.770479417247468e-7 
2.0083287855913958e-5 
-0.0003060664328066007 
-0.00018479804187338222 
8.030684303551531e-6 
-7.336780827063985e-5 
-3.5411385753875136e-5 
3.0429870846396302e-6 
-3.627565453058269e-6 
-4.79184251690143e-6 
9.351410337634247e-5 
-4.706713614122234e-6 
0.0001131285747107681 
0.0012775566769841465 
0.008856107796089295 
-1.2170746882233419e-6 
3.5127133193441795e-5 
0.0005879673523589461 
0.0008367956120423505 
-2.604957245951534e-5 
3.1555022063642233e-7 
-7.586281466139404e-6 
-1.7359355489812555e-5 
0.0019572115845458656 
0.26335899904849897 
0.20556345068504672 
4.709004590601312e-6 
9.909794760728812e-5 
0.00025369950314932155 
3.6079700699533624e-6 
1.2124143514415722e-5 
-5.1465062638806776e-5 
0.0004516382400982157 
2.5932740272916468e-5 
-8.713034027828465e-6 
3.1693128471731628e-6 
6.041950450587194e-5 
-0.0015611918480012902 
-1.474494691718801e-5 
-3.938366488887524e-6 
4.356129175650627e-6 
-0.00011703113625741453 
0.000887185098447522 
-5.755712684796539e-7 
0.06241433700953127 
-2.2350181336370728e-6 
-4.17267486576168e-5 
0.0011836586096341916 
-5.914375472883927e-6 
-6.944308491116643e-6 
0.00016622871659022204 
0.00021189029978742045 
6.847392053117461e-7 
-5.176279875402942e-5 
0.0014345604080203877 
0.004021906016592906 
0.00018483057334359025 
-4.258713585522898e-6 
-2.2034407130557165e-5 
0.0009914199547499402 
-1.1835033827465515e-5 
0.15973954317831726 
-1.3423702242710884e-5 
-0.00012765241822183064 
3.985149128273895e-6 
5.906234868463318e-5 
0.0004395945517462037 
-8.04256871087204e-7 
-1.715734557958175e-6 
-1.5022900826963062e-5 
0.0006062093276334486 
0.0168449494116556 
1.9787570404853348e-7 
4.200889620726176e-5 
-0.00018083710631558358 
-9.061658196117728e-6 
1.962015589035104e-6 
-5.71005041870115e-7 
5.062622731131997e-5 
0.0006864653000354432 
-3.5502207522327848e-6 
-3.218300586489331e-5 
0.00020897234351752321 
-2.474839089848163e-6 
-4.179711783244139e-6 
-1.607319092627477e-5 
7.937949889412894e-5 
-2.2326706423027777e-6 
0.23670015202606892 
-1.5297812904677975e-6 
-4.236306857819585e-6 
0.0022828969488653005 
0.022055188526734073 
3.12192665770307e-6 
0.0006705287952722544 
0.00022695759469242217 
0.2394071561256445 
0.023849367200050865 
2.371988223688565e-6 
0.00010755136780680468 
0.0013512679288707236 
0.0033887084733445322 
-1.0836685965307634e-6 
-0.00011035725724186183 
7.815867991286176e-5 
4.603397689305915e-5 
-4.2078727004745464e-6 
-2.411211592282227e-5 
0.0004534166430262278 
0.01947432381878608 
-2.177100533566476e-5 
4.7389712531342645e-6 
3.4228954572882116e-5 
2.7876668517000877e-6 
-0.00023737400090229508 
0.0013418371668133587 
2.822959878961129e-5 
0.00021881750116857181 
0.004526311041247488 
5.863469389046955e-6 
8.396459857207314e-5 
0.00038383214627204344 
-6.174088402142388e-5 
7.471175769460947e-6 
0.0008160319724111275 
0.3283951227174269 
-1.7138672216681061e-6 
6.380590632552487e-5 
0.013740381955603592 
1.9264675465446315e-6 
-0.00013744805462523487 
0.002585998913948045 
-6.504158426646894e-7 
0.10315312468711238 
-1.908414645284455e-6 
5.965819440665162e-6 
0.0006424011721397294 
-1.4734496843285723e-7 
1.6116199520237416e-6 
5.927935227648909e-5 
0.0002478959850308842 
-1.994849660836424e-6 
-3.4571615007283854e-5 
0.001104734854522974 
0.5674028595442948 
1.0682702741325277e-5 
0.0002513518429154941 
0.0019672440832217554 
-2.1823623561265555e-6 
3.803837960808808e-7 
-5.2375093390462475e-6 
0.00028392473898506093 
0.0005867364862012851 
5.835274243916541e-7 
-1.4231015913792328e-5 
0.0004473701328407338 
0.0636366561197078 
-1.1506588046050806e-6 
2.0138559188577386e-5 
-4.654145790687479e-5 
0.03484594383962362 
9.255019520568582e-5 
0.04559950130057563 
4.955959508868401e-6 
-2.062819402823005e-7 
5.078494287169714e-5 
-2.6344440249872055e-8 
-1.1506627329464342e-7 
-3.431382824785523e-6 
1.1756664081737348e-5 
0.00013928573885326094 
3.586639783252712e-5 
1.6384890687845555e-5 
5.925497568625621e-5 
0.0056563867115038335 
0.14514662070107764 
-3.6155501169247977e-5 
-1.7340485260647115e-5 
0.014256722625243141 
-1.292633090727739e-5 
-5.5184177517868505e-6 
1.539159329260017e-5 
0.0003872300334741188 
0.0010517753227529156 
-1.9748653048950096e-6 
-5.150012230574092e-7 
7.0922361639813025e-6 
-0.00021072367952596545 
-6.177336709662337e-5 
4.589689843995776e-6 
-0.0001012441033486605 
0.024607780611840525 
-1.755847154339521e-5 
1.1802980079490035e-6 
3.918337251827025e-5 
-0.0005258684396529581 
0.0008114404707017705 
-3.0691370174417403e-6 
-8.301142233514031e-7 
-3.4561875066294148e-6 
-2.1874653298539965e-5 
-1.5955306421628565e-5 
3.420051684415251e-5 
0.00011578090650682066 
0.00045069394973246005 
-9.406818963996853e-5 
0.24476685597749367 
0.4269979260971937 
0.31023394905684687 
4.761390448567149e-6 
1.788772228079621e-6 
6.010269422475921e-7 
3.649192779054255e-6 
4.172253770118721e-5 
6.241958186088616e-6 
0.0001512146274252232 
-0.0011994610045463986 
0.0010912211079388418 
0.36208064870097817 
0.3253474335527018 
0.4353241415882589 
-1.4913775270234738e-5 
-5.008857309899976e-6 
0.16746134068453256 
0.28645484035820556 
-2.90381047316315e-6 
-2.239932039613722e-5 
-0.0003755592841996377 
0.0007791792575676271 
0.5163728208098564 
0.4891519747690011 
2.555005900947567e-6 
-4.431106648537998e-7 
5.247778507537211e-6 
3.24078508370939e-5 
0.00013831202648270503 
-0.0012278220974025673 
-0.0002004000854055 
0.000257329058233777 
-1.025393642253242e-5 
0.0013149548067929659 
0.0001336871569570306 
0.00042605625766069965 
-8.06995634321802e-6 
7.316024553311569e-6 
3.9174206524809273e-7 
1.2917465893781176e-6 
4.3058289902341677e-7 
1.6600502723261603e-5 
-1.323783591564428e-5 
-2.875984142698795e-6 
-0.00023319095270744395 
-0.0003809389197589309 
0.00019263539731342817 
-0.0002962319071719796 
-1.6792173003127128e-5 
0.00026322560044310725 
2.5619270684155047e-6 
-8.833577442260293e-7 
1.370166509616577e-6 
7.193714115164181e-6 
7.060831303932562e-5 
2.0398394642925127e-5 
-0.00010446373302822335 
9.625411163493477e-6 
-1.0127977166230053e-6 
1.4080911124670157e-6 
1.2026161046703528e-5 
7.85415319650091e-6 
6.537179842495035e-5 
-4.485203256531829e-5 
-0.00012296942633618368 
0.00010935320837381059 
0.1750312229142973 
0.09096477729635093 
0.06635916345671487 
-5.180257521685189e-7 
-2.8912475959682433e-7 
2.448723652425006e-6 
-8.946812612352411e-6 
-1.9762875430518223e-5 
1.3258324181466911e-5 
-0.001593875945497216 
0.0011411020065786577 
0.000989740676053753 
2.6079822339450314e-5 
-2.5738856349465875e-6 
8.669319978116877e-6 
-0.00020171202659604245 
8.044602197894352e-5 
0.00012806327976932753 
-0.00021648499438461612 
-0.00014893083413698846 
0.0004114876334397416 
1.2754859188331559e-6 
-3.839279856687208e-6 
4.07820767453297e-6 
-1.956513615299199e-6 
-7.717498227009138e-6 
2.3136632942494288e-6 
0.00015627317045954282 
-7.518891263385541e-5 
-2.5107976509769234e-5 
0.00031525260162537454 
-0.00017591586196777324 
-7.080983846437103e-5 
-1.953156971577236e-6 
2.2335215433858174e-6 
-1.731987210173398e-6 
-1.0325037017149596e-6 
1.747974199132208e-5 
0.0001862055433569276 
0.000143739554933129 
-8.78135787206986e-6 
8.45840943251488e-5 
-3.530191078777827e-5 
3.6647395335963464e-7 
1.4870731180801733e-5 
-4.011643183096928e-6 
-0.00018794157277807433 
3.267536748859098e-5 
0.00011247765550654453 
0.00015001895086310814 
2.2618160188786972e-7 
-2.5267218426405006e-6 
0.01808633557902698 
0.0077162573946542206 
0.003867316282893827 
-1.613719188929735e-6 
2.2669720609817467e-6 
4.720390019382736e-6 
1.0125065763044382e-5 
5.4257142424404206e-5 
-5.659118516599164e-5 
0.00013949163471860734 
0.0001868559455716419 
9.270647601144794e-7 
5.787225840059082e-7 
1.5836627086976329e-6 
3.222895553703307e-6 
-1.1514477343070732e-5 
-1.077768264802189e-5 
0.0003724424222203014 
-0.00014357478049665748 
0.13565333043328207 
0.0461519749973222 
1.5364560058772392e-7 
9.722968229070064e-7 
5.039690555630608e-5 
-3.017068440841662e-5 
-0.0015293314068013247 
-0.00023356798726674696 
3.0626621997743432e-6 
-7.464423782739228e-7 
-1.4067554967083433e-7 
-4.9644754313214405e-6 
3.0324474839829135e-6 
2.4084580254508015e-6 
0.00010190251587927009 
-9.809799487949737e-5 
2.0214647196793096e-5 
0.00044390114514203285 
-0.0007663174207680593 
-7.319269883403009e-5 
0.000445019491662734 
-0.00015663809551603254 
8.305470897802565e-7 
-1.832286078915449e-6 
1.4563798323504451e-5 
1.518645697497194e-5 
-2.848919433719949e-6 
-0.00043469099157636453 
0.0002163672808557357 
0.0009006438037350745 
-8.453125352853176e-6 
2.9662979061999685e-6 
5.2457237601470155e-6 
-9.692504140249735e-6 
4.628446369829974e-5 
7.830885384605618e-5 
-0.0009846694692269213 
-0.0001648035872572796 
0.001417368130117931 
3.3547305953027307e-7 
-7.643375385594582e-6 
-2.477403922704183e-6 
1.3943451225432114e-5 
-6.867540497115979e-6 
4.718762231247938e-6 
-0.00012451632228935408 
3.4215977422688966e-5 
9.11746541033237e-5 
-0.00011869242850550278 
0.00020213765217071933 
-0.00016279524973311678 
-1.0428794619495652e-6 
-2.3405768103695012e-7 
-1.1351769125887881e-6 
4.987231703778331e-7 
1.236853551531083e-6 
-3.285378310998523e-6 
2.002275890549383e-6 
5.556413948430294e-5 
0.00011182462151854879 
0.00015965359211420635 
0.0001612966670533755 
0.00012772133185235462 
0.0002690278444673378 
-9.263642500163154e-6 
0.0023070258199627113 
-1.6162083881460128e-6 
2.4881542979919915e-6 
9.854829319374331e-5 
-0.0002360385586317698 
-0.0001463957577780653 
0.0006060815409518262 