# vtk DataFile Version 3.0 
Unstructured Grid 
ASCII 
DATASET UNSTRUCTURED_GRID
POINTS 2173 float 
-0.5 -0.5 0  
0.5 -0.5 0  
0.5 0.5 0  
-0.5 0.5 0  
-0.475 -0.5 0  
-0.45 -0.5 0  
-0.425 -0.5 0  
-0.4 -0.5 0  
-0.375 -0.5 0  
-0.35 -0.5 0  
-0.325 -0.5 0  
-0.3 -0.5 0  
-0.275 -0.5 0  
-0.25 -0.5 0  
-0.225 -0.5 0  
-0.2 -0.5 0  
-0.175 -0.5 0  
-0.15 -0.5 0  
-0.125 -0.5 0  
-0.1 -0.5 0  
-0.075 -0.5 0  
-0.05 -0.5 0  
-0.025 -0.5 0  
-1.3761214e-12 -0.5 0  
0.025 -0.5 0  
0.05 -0.5 0  
0.075 -0.5 0  
0.1 -0.5 0  
0.125 -0.5 0  
0.15 -0.5 0  
0.175 -0.5 0  
0.2 -0.5 0  
0.225 -0.5 0  
0.25 -0.5 0  
0.275 -0.5 0  
0.3 -0.5 0  
0.325 -0.5 0  
0.35 -0.5 0  
0.375 -0.5 0  
0.4 -0.5 0  
0.425 -0.5 0  
0.45 -0.5 0  
0.475 -0.5 0  
0.5 -0.475 0  
0.5 -0.45 0  
0.5 -0.425 0  
0.5 -0.4 0  
0.5 -0.375 0  
0.5 -0.35 0  
0.5 -0.325 0  
0.5 -0.3 0  
0.5 -0.275 0  
0.5 -0.25 0  
0.5 -0.225 0  
0.5 -0.2 0  
0.5 -0.175 0  
0.5 -0.15 0  
0.5 -0.125 0  
0.5 -0.1 0  
0.5 -0.075 0  
0.5 -0.05 0  
0.5 -0.025 0  
0.5 -1.3761214e-12 0  
0.5 0.025 0  
0.5 0.05 0  
0.5 0.075 0  
0.5 0.1 0  
0.5 0.125 0  
0.5 0.15 0  
0.5 0.175 0  
0.5 0.2 0  
0.5 0.225 0  
0.5 0.25 0  
0.5 0.275 0  
0.5 0.3 0  
0.5 0.325 0  
0.5 0.35 0  
0.5 0.375 0  
0.5 0.4 0  
0.5 0.425 0  
0.5 0.45 0  
0.5 0.475 0  
0.475 0.5 0  
0.45 0.5 0  
0.425 0.5 0  
0.4 0.5 0  
0.375 0.5 0  
0.35 0.5 0  
0.325 0.5 0  
0.3 0.5 0  
0.275 0.5 0  
0.25 0.5 0  
0.225 0.5 0  
0.2 0.5 0  
0.175 0.5 0  
0.15 0.5 0  
0.125 0.5 0  
0.1 0.5 0  
0.075 0.5 0  
0.05 0.5 0  
0.025 0.5 0  
1.3761214e-12 0.5 0  
-0.025 0.5 0  
-0.05 0.5 0  
-0.075 0.5 0  
-0.1 0.5 0  
-0.125 0.5 0  
-0.15 0.5 0  
-0.175 0.5 0  
-0.2 0.5 0  
-0.225 0.5 0  
-0.25 0.5 0  
-0.275 0.5 0  
-0.3 0.5 0  
-0.325 0.5 0  
-0.35 0.5 0  
-0.375 0.5 0  
-0.4 0.5 0  
-0.425 0.5 0  
-0.45 0.5 0  
-0.475 0.5 0  
-0.5 0.475 0  
-0.5 0.45 0  
-0.5 0.425 0  
-0.5 0.4 0  
-0.5 0.375 0  
-0.5 0.35 0  
-0.5 0.325 0  
-0.5 0.3 0  
-0.5 0.275 0  
-0.5 0.25 0  
-0.5 0.225 0  
-0.5 0.2 0  
-0.5 0.175 0  
-0.5 0.15 0  
-0.5 0.125 0  
-0.5 0.1 0  
-0.5 0.075 0  
-0.5 0.05 0  
-0.5 0.025 0  
-0.5 1.3761214e-12 0  
-0.5 -0.025 0  
-0.5 -0.05 0  
-0.5 -0.075 0  
-0.5 -0.1 0  
-0.5 -0.125 0  
-0.5 -0.15 0  
-0.5 -0.175 0  
-0.5 -0.2 0  
-0.5 -0.225 0  
-0.5 -0.25 0  
-0.5 -0.275 0  
-0.5 -0.3 0  
-0.5 -0.325 0  
-0.5 -0.35 0  
-0.5 -0.375 0  
-0.5 -0.4 0  
-0.5 -0.425 0  
-0.5 -0.45 0  
-0.5 -0.475 0  
-0.002115384 -0.00023065208 0  
-0.20714286 -0.20714286 0  
0.20714286 -0.20714286 0  
0.20714286 0.20714286 0  
-0.20714286 0.20714286 0  
-0.28155318 -0.0017231192 0  
0.0017231192 -0.28155318 0  
0.28155318 0.0017231192 0  
-0.0017231192 0.28155318 0  
0.3319978 -0.33098683 0  
0.33098683 0.3319978 0  
-0.3319978 0.33098683 0  
-0.33098683 -0.3319978 0  
-0.14015679 -0.06698606 0  
0.06698606 -0.14015679 0  
0.14015679 0.06698606 0  
-0.06698606 0.14015679 0  
-0.1387125 -0.34573975 0  
0.34573975 -0.1387125 0  
0.1387125 0.34573975 0  
-0.34573975 0.1387125 0  
0.14046866 -0.34602854 0  
0.34602854 0.14046866 0  
-0.14046866 0.34602854 0  
-0.34602854 -0.14046866 0  
-0.05869875 -0.16617337 0  
0.18217777 -0.061504476 0  
0.062312964 0.18362015 0  
-0.18362015 0.062312964 0  
-0.034321424 -0.38563195 0  
0.38563195 -0.034321424 0  
0.034321424 0.38563195 0  
-0.38563195 0.034321424 0  
0.39586002 -0.2428538 0  
0.2428538 0.39586002 0  
-0.39586002 0.2428538 0  
-0.2428538 -0.39586002 0  
0.23688246 -0.38952246 0  
0.38952246 0.23688246 0  
-0.23688246 0.38952246 0  
-0.38952246 -0.23688246 0  
-0.24287231 -0.09948847 0  
0.09948847 -0.24287231 0  
0.24287231 0.09948847 0  
-0.09948847 0.24287231 0  
-0.11560815 -0.24300627 0  
0.24300627 -0.11560815 0  
0.11560815 0.24300627 0  
-0.24300627 0.11560815 0  
-0.40192315 -0.4008276 0  
0.4008276 -0.40192315 0  
0.40192315 0.4008276 0  
-0.4008276 0.40192315 0  
0.06409326 -0.40289903 0  
0.40289903 0.06409326 0  
-0.06409326 0.40289903 0  
-0.40289903 -0.06409326 0  
0.2962961 -0.23982804 0  
0.23982804 0.2962961 0  
-0.2962961 0.23982804 0  
-0.23982804 -0.2962961 0  
-0.28087237 -0.21196799 0  
0.21196799 -0.28087237 0  
0.28087237 0.21196799 0  
-0.21196799 0.28087237 0  
-0.0901279 0.007867504 0  
-0.05002927 -0.07494272 0  
0.0873353 -0.009871756 0  
0.0071518295 0.09216282 0  
-0.14120433 -0.1484696 0  
-0.14581114 0.13960092 0  
0.1458264 -0.14505939 0  
0.13960092 0.14581114 0  
0.41838804 -0.3182741 0  
0.3182741 0.41838804 0  
-0.41838804 0.3182741 0  
-0.3182741 -0.41838804 0  
0.32118136 -0.41712493 0  
0.41712493 0.32118136 0  
-0.32118136 0.41712493 0  
-0.41712493 -0.32118136 0  
-0.19707234 -0.014843048 0  
0.018050108 -0.20183705 0  
0.19707234 0.014843048 0  
-0.014843048 0.19707234 0  
-0.10938372 -0.41847488 0  
0.41847488 -0.10938372 0  
0.10938372 0.41847488 0  
-0.41847488 0.10938372 0  
0.15773043 -0.4267032 0  
0.4267032 0.15773043 0  
-0.15773043 0.4267032 0  
-0.4267032 -0.15773043 0  
-0.3204562 -0.07174808 0  
0.07174808 -0.3204562 0  
0.3204562 0.07174808 0  
-0.07174808 0.3204562 0  
0.02801032 -0.07269879 0  
-0.31817523 0.069836795 0  
-0.069836795 -0.31817523 0  
0.31817523 -0.069836795 0  
0.069836795 0.31817523 0  
0.43106207 -0.17757268 0  
0.17757268 0.43106207 0  
-0.43106207 0.17757268 0  
-0.17757268 -0.43106207 0  
0.0703783 0.071201205 0  
-0.051593844 0.064346604 0  
0.099701226 -0.08333426 0  
0.2863281 -0.17248559 0  
0.17248559 0.2863281 0  
-0.2863281 0.17248559 0  
-0.17248559 -0.2863281 0  
-0.2341888 0.04979648 0  
-0.049194112 -0.231281 0  
0.23358595 -0.04946041 0  
0.04979648 0.2341888 0  
-0.009939441 -0.13691185 0  
-0.26560438 -0.17864102 0  
0.17864102 -0.26560438 0  
0.26560438 0.17864102 0  
-0.17864102 0.26560438 0  
0.013302229 -0.43510666 0  
0.43510666 0.013302229 0  
-0.013302229 0.43510666 0  
-0.43510666 -0.013302229 0  
0.09432827 0.114700764 0  
-0.11539384 0.093188405 0  
-0.3413634 -0.005100272 0  
0.005100272 -0.3413634 0  
0.3413634 0.005100272 0  
-0.005100272 0.3413634 0  
-0.19817708 -0.3508856 0  
0.3508856 -0.19817708 0  
0.19817708 0.3508856 0  
-0.3508856 0.19817708 0  
-0.34100306 -0.27216324 0  
0.27216324 -0.34100306 0  
0.34100306 0.27216324 0  
-0.27216324 0.34100306 0  
-0.20269383 -0.14403741 0  
0.14393912 -0.2028372 0  
0.2026342 0.14393856 0  
-0.14393856 0.2026342 0  
-0.1030633 -0.10524017 0  
-0.4394695 -0.104853734 0  
0.104853734 -0.4394695 0  
0.4394695 0.104853734 0  
-0.104853734 0.4394695 0  
-0.44156647 -0.44156647 0  
0.44156647 -0.44156647 0  
0.44156647 0.44156647 0  
-0.44156647 0.44156647 0  
-0.2683254 -0.44465622 0  
0.44465622 -0.2683254 0  
0.2683254 0.44465622 0  
-0.44465622 0.2683254 0  
0.2654342 -0.4435478 0  
0.4435478 0.2654342 0  
-0.2654342 0.4435478 0  
-0.4435478 -0.2654342 0  
-0.27373606 -0.34534052 0  
0.34534052 -0.27373606 0  
0.27373606 0.34534052 0  
-0.34534052 0.27373606 0  
-0.05307205 -0.4481981 0  
0.4481981 -0.05307205 0  
0.05307205 0.4481981 0  
-0.4481981 0.05307205 0  
-0.35614902 -0.19390328 0  
0.19390328 -0.35614902 0  
0.35614902 0.19390328 0  
-0.19390328 0.35614902 0  
-0.14022674 -0.012452113 0  
0.14171903 0.011271359 0  
-0.01125192 0.14089845 0  
-0.19556868 -0.06932378 0  
0.070511825 -0.19668652 0  
0.19556868 0.06932378 0  
-0.06932378 0.19556868 0  
-0.24951252 -0.039742906 0  
0.04037078 -0.2503529 0  
0.24951252 0.039742906 0  
-0.039742906 0.24951252 0  
0.44100407 -0.36164257 0  
0.36164257 0.44100407 0  
-0.44100407 0.36164257 0  
-0.36164257 -0.44100407 0  
-0.4451273 -0.36589316 0  
0.36589316 -0.4451273 0  
0.4451273 0.36589316 0  
-0.36589316 0.4451273 0  
0.1121834 -0.30242515 0  
0.30242515 0.1121834 0  
-0.1121834 0.30242515 0  
-0.30242515 -0.1121834 0  
-0.115146436 -0.19087775 0  
0.19190264 -0.11309679 0  
0.11520548 0.19263776 0  
-0.19263776 0.11520548 0  
-0.08287991 -0.37025127 0  
0.37025127 -0.08287991 0  
0.08287991 0.37025127 0  
-0.37025127 0.08287991 0  
0.23791528 -0.24381089 0  
0.24381089 0.23791528 0  
-0.23791528 0.24381089 0  
-0.24381089 -0.23791528 0  
-0.44626984 -0.21174923 0  
0.21174923 -0.44626984 0  
0.44626984 0.21174923 0  
-0.21174923 0.44626984 0  
0.35174853 -0.37705234 0  
0.37705234 0.35174853 0  
-0.35174853 0.37705234 0  
-0.37705234 -0.35174853 0  
-0.048605647 -0.023262763 0  
-0.1551113 -0.21381997 0  
0.21381997 -0.1551113 0  
0.1551113 0.21381997 0  
-0.21381997 0.1551113 0  
-0.29403278 -0.30027482 0  
0.30027482 -0.29403278 0  
0.29403278 0.30027482 0  
-0.30027482 0.29403278 0  
0.12173745 -0.390654 0  
0.390654 0.12173745 0  
-0.12173745 0.390654 0  
-0.390654 -0.12173745 0  
-0.12236246 -0.2979882 0  
0.2979882 -0.12236246 0  
0.12236246 0.2979882 0  
-0.2979882 0.12236246 0  
-0.0945969 -0.046371013 0  
0.035276897 -0.027358124 0  
-0.0076714605 0.051946 0  
-0.30809116 -0.17165439 0  
0.17165439 -0.30809116 0  
0.30809116 0.17165439 0  
-0.17165439 0.30809116 0  
-0.16592422 -0.10879113 0  
0.10700909 -0.1687818 0  
0.16864619 0.10664837 0  
-0.10664837 0.16864619 0  
-0.16784625 -0.38069874 0  
0.38069874 -0.16784625 0  
0.16784625 0.38069874 0  
-0.38069874 0.16784625 0  
-0.4563872 -0.05993889 0  
0.05993889 -0.4563872 0  
0.4563872 0.05993889 0  
-0.05993889 0.4563872 0  
0.31103167 -0.37412483 0  
0.37412483 0.31103167 0  
-0.31103167 0.37412483 0  
-0.37412483 -0.31103167 0  
-0.3909646 -0.012754724 0  
0.012754724 -0.3909646 0  
0.3909646 0.012754724 0  
-0.012754724 0.3909646 0  
0.44915667 -0.21679194 0  
0.21679194 0.44915667 0  
-0.44915667 0.21679194 0  
-0.21679194 -0.44915667 0  
0.045831423 0.12033131 0  
-0.12662303 0.045442794 0  
-0.3107799 -0.37355793 0  
0.37355793 -0.3107799 0  
0.3107799 0.37355793 0  
-0.37355793 0.3107799 0  
0.04152367 0.021693805 0  
-0.08040017 -0.2675595 0  
0.26794365 -0.08044455 0  
0.080500565 0.2680441 0  
-0.2680441 0.080500565 0  
-0.13753757 -0.45578164 0  
0.45578164 -0.13753757 0  
0.13753757 0.45578164 0  
-0.45578164 0.13753757 0  
-0.05507968 -0.12135967 0  
0.14172421 -0.09428923 0  
0.2571752 -0.19664502 0  
[...]
POINT_DATA 2173 
SCALARS T float 
LOOKUP_TABLE default 
1.2430670119048279e-18 
3.9515132353688946e-22 
4.882865510533797e-19 
-2.461376401495564e-18 
2.5698815621289425e-16 
1.69701949171026e-18 
-6.513483683178625e-16 
2.344067248911137e-16 
1.857464738751505e-16 
2.0635669479081767e-16 
1.2167468622986593e-15 
1.1244197643349333e-16 
2.16780853325221e-15 
-1.2852607505603486e-15 
5.307821983938976e-16 
-3.537663955780318e-18 
3.0858767608170483e-16 
6.470273110758961e-17 
-2.725221094947182e-16 
2.1092846102481666e-16 
-2.294176344959506e-16 
2.0631011321989124e-17 
1.1278986672660196e-16 
-2.2397246971223446e-16 
1.9249917039624244e-16 
-1.4390469567153781e-16 
1.4233949345475303e-17 
8.136100106055938e-19 
-8.513243174622258e-19 
-3.3157258215256386e-18 
-3.36788724455717e-19 
-4.404187150946235e-19 
-2.261279215820182e-19 
-6.572711833539609e-20 
-2.307492001216904e-20 
-1.1398568077452846e-20 
-1.4229320200859126e-21 
-2.2545798718836083e-21 
-8.536729305381894e-22 
-2.7618144053946776e-21 
1.3295598556176446e-20 
-3.1885117654883882e-21 
-2.9471281568702e-21 
2.7097722073622816e-21 
-4.4437112869204123e-23 
-4.4339483179851035e-21 
6.4688341585578954e-21 
1.4272630300006818e-21 
3.9188168361537266e-21 
-5.628214186490736e-20 
2.774143949275215e-19 
-6.585012430673596e-19 
9.3181833733641e-19 
-9.722630071082921e-19 
7.001838915382534e-20 
1.0107181690854764e-18 
-3.205751262200414e-18 
6.026244928740108e-18 
-6.514479390050294e-18 
5.3288296333331145e-18 
-3.0966037677064813e-18 
5.85923874714504e-20 
-2.524220835279395e-18 
5.066882535402995e-18 
-8.198925954402944e-18 
8.478826130008933e-18 
-1.3244136158209741e-17 
9.017192593167835e-18 
-4.095260331538483e-18 
-8.5084321495618e-19 
7.938386951805225e-18 
-1.3347094031925904e-17 
1.2366476595320882e-17 
-1.0912398629569606e-17 
-2.3093555157025904e-17 
4.275935934813341e-19 
-1.0254866556332689e-17 
-3.2348877057354652e-18 
-5.076745860684657e-18 
1.4310670197347032e-17 
-3.915208948310535e-18 
-6.725651170077327e-18 
7.147712942717011e-18 
2.0697987223026135e-18 
-6.893682975391959e-18 
5.156482342761094e-18 
3.987250885159125e-18 
-4.1332834522965285e-18 
5.8501614446002e-19 
4.610361506264413e-17 
-1.146392823623926e-16 
1.683185883239109e-16 
-1.7613822901709695e-16 
7.352607736862068e-17 
2.7534309221256326e-17 
-8.054853653873843e-17 
1.689871551646285e-16 
-1.6287161851119043e-16 
1.142150236602763e-16 
-3.4906781131967294e-17 
-4.386325543621155e-17 
1.4487221718339646e-18 
-2.3726569575591592e-17 
7.799270904350616e-17 
-1.1705306401543842e-16 
1.3696192252706625e-16 
-1.5045381672145588e-16 
-7.745105175740229e-20 
2.4021987621921353e-16 
-4.0859836350605317e-16 
3.053500900467827e-16 
5.593753897301618e-17 
-3.854336858259007e-16 
2.706158003370304e-16 
-2.0862505368841048e-16 
2.9337617546757846e-16 
8.606696705692908e-17 
2.94522395679061e-17 
1.1437049854350055e-16 
3.232592047640831e-17 
3.5120453696314296e-17 
-3.5522187350475196e-17 
5.625366046362398e-17 
-3.233609983649511e-17 
3.194493324707574e-16 
4.444378154882365e-16 
5.190745350099202e-16 
4.637817965447676e-16 
1.4069864065589413e-16 
1.339495810318212e-16 
5.784439028838651e-17 
-3.5259684543662803e-16 
5.982876510938772e-16 
-3.7377195816376714e-16 
7.279381802614965e-17 
5.415852193901109e-16 
-9.794963409534677e-16 
8.232868731942672e-16 
-6.450561875469124e-16 
-2.0384226096140905e-16 
2.1464058483207433e-16 
-2.792192694114084e-16 
5.694962303709811e-16 
-1.061169532934138e-15 
2.4134193060814816e-15 
1.6984360917747858e-16 
1.2639260874734899e-15 
-6.974920777623844e-16 
8.546907915619084e-16 
-1.6858844212363445e-15 
5.231979850220618e-16 
9.266156670540187e-16 
2.604181383803595e-15 
5.7661645251908e-17 
1.6755337841630002e-15 
4.1261293007832553e-16 
-7.294741961796793e-17 
4.3437434974799883e-16 
-7.134083547059756e-17 
-2.9507651945991633e-16 
2.6771622082017744e-6 
0.00212924527276456 
-1.7895284702319047e-7 
1.904064977971276e-5 
0.0001439476567764187 
0.0010934911211749434 
0.4273980997625421 
-1.9028132974604823e-6 
-9.795081417179388e-5 
1.2938419914350814e-8 
-2.0904051358505782e-6 
7.86525803661232e-5 
-0.0005057492912222391 
0.002576974443914156 
0.005450002291015325 
3.6253146256934475e-6 
-0.00013265988126954123 
0.011241309779008304 
3.654491541977174e-7 
9.575637886240818e-5 
-0.0005519951390098564 
-2.6137897488175646e-5 
1.5122233552189163e-5 
-0.00022867270633603848 
0.0012167151441060745 
0.19778591988363958 
-2.0934040386214592e-7 
1.3073959513912533e-5 
0.0005448760656411722 
0.010101913070573896 
-2.0076728866416685e-6 
3.0159992727058334e-5 
-0.0006316550575278813 
-2.1724604705009763e-7 
-1.4616614294292619e-5 
-0.000526270566534165 
-0.002072240495926441 
1.7849202771545038e-7 
-2.986277736524461e-6 
-1.579427537867385e-5 
4.331203731364079e-5 
0.00024090454293017172 
0.012660503832210332 
2.4043330225822713e-6 
0.00012217724105765087 
0.28771062393998936 
2.399164961038167e-7 
7.112959233248176e-7 
-0.0013421873279078947 
0.0007036159188242682 
-4.9984996516593664e-9 
-4.030374704977685e-6 
0.00021143480130160703 
-0.00017558746995131473 
-1.4985793448179486e-6 
2.625658931228745e-5 
-0.0004043638381682196 
-3.167937372444178e-8 
-3.80859709581223e-6 
0.00018631258276577729 
0.00010722780227072022 
0.0013575184372153996 
-2.449778716295893e-6 
-1.546373801436719e-5 
0.0002673054768098565 
-0.0013995670864680484 
0.0012730596193852987 
-1.6261923875121326e-6 
2.177658188010239e-5 
0.019321045257294545 
-0.0004775586944557488 
-9.73041331159661e-6 
1.2266124267647763e-6 
5.480949999627682e-9 
6.412631276393058e-7 
-6.498784751613818e-5 
-0.0002823343398470014 
2.850983635990761e-9 
-1.4914379191215552e-5 
9.560108046949871e-5 
0.0018962466858336302 
-0.000349226569491129 
0.25519224088170883 
7.636828837179137e-7 
-0.00015210324843040654 
-3.853947167693239e-5 
-1.0527866286990479e-7 
-3.020335631906778e-5 
-0.00030463022348641716 
-1.1532244524121761e-5 
-1.7963942395136662e-6 
0.00016252936942766827 
0.0016143823409780138 
-0.0005621539739546938 
0.017342187549466474 
1.623188429070254e-5 
-3.5149826169655285e-6 
0.0002578937721209806 
-8.337437199109491e-5 
0.23473709870966147 
7.270589767199369e-7 
5.911292554945743e-5 
-3.165778467917127e-7 
-3.789545166217943e-5 
-0.0006867207865128489 
-0.0011066871835513276 
1.0020347728755965e-5 
-8.864282910318095e-5 
1.417322769293486e-5 
7.614994896873746e-8 
2.3510935655006954e-5 
-0.001471813307455584 
0.019197447065007412 
0.0002961127841372105 
0.8138318412530312 
-4.294045707001684e-7 
3.649050345720601e-5 
0.051916874305951405 
0.0037606419185660473 
-3.6801418014963245e-6 
-7.673697301642252e-6 
0.00033297071525391743 
-0.00041507435899313413 
-5.863179409686245e-7 
-8.898759911099066e-5 
-0.00021722848755848206 
-9.0055433045855e-6 
0.00022947146711413974 
-0.0006670191695785368 
0.07426414394683202 
1.109380730443494e-6 
6.191502778560601e-6 
0.001102469730406616 
2.5380393156223297e-7 
5.098662549740006e-5 
-0.00018448319075724026 
0.00011629536113372527 
3.808675245342487e-8 
2.426170814546556e-6 
-8.65941116026529e-5 
0.0016939418862897838 
0.000279008321615715 
-1.749850622214993e-5 
-0.0003859942624262476 
0.0035241469731417197 
0.0008332365021828782 
-1.3389723597689798e-5 
-5.769601762497682e-6 
6.234880882098539e-5 
0.00025262681857195104 
-8.025798848787545e-9 
-6.391585532560524e-6 
0.00012190959834275577 
-0.0009612230775834375 
-9.170457827846182e-9 
-2.3771958310004752e-5 
-0.00020752837775700226 
4.293468933793723e-8 
1.341331208288709e-6 
-0.00017728581075226587 
0.0018692407613096129 
-0.0011507935028970137 
7.697906834567797e-8 
1.9537404988101705e-5 
-7.251313703703499e-5 
8.367671915426467e-5 
-1.5632247566103289e-6 
-1.957245013491681e-5 
-0.0002880294358451835 
0.0027652684627954504 
-3.6211940717893076e-6 
-1.6458379385380642e-5 
0.0005057092808656618 
0.0020219577405379513 
1.5942635109839413e-6 
-0.00015177985473205193 
-0.0004947068299740804 
0.03273618457028342 
-4.293445333796995e-6 
-1.219104989856214e-5 
-0.0014982384631251257 
0.20779679126435266 
-2.9980995628808404e-7 
3.6644539881268025e-5 
-4.571255524269705e-8 
-1.4356917049119352e-5 
0.00020874537215938158 
0.0010339223993272749 
0.0009357748154152433 
1.908649125783904e-9 
-6.812355064333257e-7 
0.0003220333961115755 
0.002362459901105409 
-1.3116204327092375e-5 
0.00023986470426610405 
0.002383557574900427 
0.14722047420204037 
-5.597246459876494e-8 
-2.4038274422587004e-6 
-0.0003632415933736515 
0.01887800134571101 
1.6895314268699074e-6 
7.913667252992037e-5 
-0.00021680172123537622 
-4.7714909910281786e-8 
-9.221192997990436e-6 
-0.0005025975242262871 
-0.002892646064941581 
0.0006506437410031282 
3.4541412633956407e-8 
-6.383482190535544e-7 
-8.960393023391697e-5 
-9.857204095183938e-9 
3.602338687957575e-7 
-3.296418504002126e-5 
-0.0005913911554020743 
-3.958165768476475e-5 
0.04485855695086112 
-2.7723477717651576e-7 
-3.1730373271560596e-5 
0.0006829556250591783 
-0.0016050132831594874 
7.310422423285989e-8 
2.7093727028763377e-5 
0.00018427736442558668 
-0.00010735063822463073 
1.134892879076538e-6 
0.00013480361506682073 
-0.00042711179584053246 
0.11128391320211278 
1.8978871656210118e-7 
0.00011172722463413961 
-0.0007176754494923936 
-0.00041905964588199074 
3.971661281769056e-6 
-1.8358766555408206e-5 
0.003560605905990628 
-2.0720371280570217e-5 
-1.4184765835330707e-5 
0.0003879189091274466 
0.004079150982198794 
0.0014429951248662327 
-7.799733212813582e-6 
0.0004968029833465672 
0.0004343971689961157 
-1.7641389521485353e-7 
-9.677502778760112e-6 
0.00012720809896326642 
-0.0007892301157049826 
-0.00012822074119983465 
-2.7304109342412276e-6 
3.479634139623476e-5 
-1.1111619142263652e-8 
-5.718452488246812e-6 
-6.281993026493181e-5 
0.0008999451078533676 
-0.0011602073780390852 
0.003212753807381019 
-1.0407251660255288e-5 
0.00024877467497520176 
6.276318287089641e-7 
8.225804934662772e-5 
-0.00030647547575461643 
-0.00010759391118546914 
2.9277246366950794e-6 
0.0013480722362488463 
-0.0006522764773930821 
4.662677988976329e-9 
2.343118029404072e-6 
-0.00015245040059519075 
-2.4869181629980177e-6 
0.582335487918708 
9.651226725387449e-8 
4.474367530492208e-5 
0.000507003870615228 
-2.7041364682716372e-5 
-8.333847094590274e-7 
3.431537156202157e-5 
0.00045620778857433575 
0.027720681186497006 
6.806689953617585e-7 
4.481847127656327e-8 
-6.853388696238635e-6 
0.0004996708260975096 
0.0026308001990455496 
-6.344002258537889e-7 
0.00013991293039273032 
-0.00030757473146170606 
-4.848747931502627e-8 
-7.23488145738623e-6 
-0.00020388879643772057 
-1.5304352046239172e-7 
-4.128102709234571e-5 
-9.795952833396015e-5 
0.0005342163633343519 
3.532011506439999e-9 
6.086618838113658e-6 
0.00016686472305563993 
-0.000448870039572656 
-2.5816000500629345e-6 
-0.00012260298785610676 
-0.0003083980793211758 
0.04144433930957064 
1.1862258626715568e-5 
-0.00021161910949581833 
-0.00013442107432073502 
0.00020418818863331305 
0.004480718572471941 
0.49301554073364073 
6.163168531794965e-7 
6.611636639043449e-5 
-0.0010631246553540483 
0.0010856550902515994 
0.6495367649099075 
5.805324846009961e-7 
-4.462290799773895e-5 
0.0007652664140823988 
-2.5314579992296027e-6 
-9.202424586174324e-6 
0.0003791347942530947 
0.0004469297222391822 
0.06156685580384412 
-4.901966452618377e-5 
-2.4889287212031946e-6 
-0.0001846049158028686 
0.003907941791522958 
0.06391765334619844 
-2.7956657776328053e-8 
-1.125397617851622e-5 
-0.00025921707996616434 
0.0006159530610224178 
0.0004130884914425572 
0.10521279420044151 
-2.0024466128608186e-6 
0.00010522407976136522 
0.00031039075406590777 
-4.18040085472309e-6 
2.0151885239542268e-5 
8.847411301808883e-5 
0.012250791884042172 
-5.34947879180085e-6 
-0.00015552129189389481 
-0.0018989784654489484 
0.0009227285625388076 
0.0009676732131233971 
-6.655646908235112e-6 
0.000390594391459256 
0.014052014570626057 
0.00037742038891448986 
-1.1958756848763885e-6 
5.106837825806742e-6 
-9.545109622371977e-9 
4.528886621603554e-6 
-0.0001770205620565091 
8.611012240309688e-5 
0.0022976682267846884 
-2.9097572097356444e-7 
2.2654780447013422e-5 
-0.0007806622452502199 
2.83042120369078e-5 
1.4063440458580537e-6 
9.975539451489895e-5 
-0.00030046471821274347 
0.0008657600047594911 
1.8459368294815158e-6 
-6.67314011370449e-6 
0.00017524476183689613 
-4.397571903298262e-9 
1.593772495871677e-7 
0.00014384163536088255 
0.00024961533415526386 
5.665466412224362e-9 
7.3729997989879274e-6 
-2.8846326385909998e-6 
-1.297755905721207e-5 
-0.00040256727203429656 
0.5735603953564955 
-6.153562603998124e-7 
0.00019645989354015334 
0.0006417612387294224 
-5.55176861204779e-6 
-0.00018726292304908885 
-1.4122296446017202e-5 
0.00048736604415253106 
-0.0006345529913009841 
0.09968004526363215 
2.3991357367101097e-6 
-0.0002082375802767406 
-0.0002887899552563995 
0.0015666811134255347 
-5.81919431583744e-6 
1.554093258472366e-5 
3.2191026627833195e-6 
-0.0016985755074322595 
-7.924152584643425e-7 
1.4348789052479199e-5 
-0.00011392853377677793 
2.211940207470929e-6 
0.00010959067958664485 
0.00045390995149790077 
-0.00036992810692479866 
-1.54535403531536e-6 
0.00649459135647865 
0.004886580754157808 
1.3311685947222756e-6 
-0.0007290726074036868 
-0.0002180707481257386 
4.344716946572162e-6 
3.5328770876663533e-6 
-0.0004463656794872345 
1.51998880259545e-7 
5.786787861021071e-5 
-0.0011989545862238242 
0.05501464773883322 
6.169195535472746e-6 
-0.0005038190296849136 
1.200795329202718e-7 
-4.41887590833058e-6 
-0.00025435004305379103 
-0.002810025386079572 
-0.0005968576217387336 
0.05752159069924083 
-2.963932553742134e-7 
-2.1707541583172896e-6 
-0.0011680443640836656 
-3.4318262674606326e-7 
1.5291995896944928e-5 
6.484071846188697e-5 
0.5399750068661123 
-3.81885849024599e-7 
-3.776880812490133e-6 
0.0010219650238470091 
1.2140094772152446e-7 
2.1609066711842972e-5 
5.761539631932267e-5 
-0.0005637657032314734 
-6.953886465072295e-5 
8.608699195725524e-7 
0.00011296382307530043 
-0.0001312711895755529 
0.008674807563518612 
1.7735320771827676e-7 
-9.285787476877885e-6 
7.591634607358936e-5 
0.0003482018231265659 
-2.7698059907983845e-9 
1.6153661622679585e-5 
0.00010109046525969052 
4.206802097906637e-6 
3.523628432196309e-5 
9.875362429258081e-7 
6.822064710487953e-6 
-0.00013007763820113545 
-0.0008096270490767859 
0.0002257352546547252 
1.3171972314101329e-9 
3.666614055322484e-7 
6.172494138674232e-5 
-8.82583650227518e-5 
0.00036943205021042305 
-3.88632698851092e-6 
-0.0005036998789722169 
-0.00015982439887427652 
8.441337337778787e-8 
-3.7039959509723935e-5 
-0.0008163370038420418 
0.007602894888346593 
-0.0015120758037325546 
6.360093087583303e-7 
0.0001205728616720794 
-0.000368578297257641 
0.19511107824072957 
0.0006062463961192721 
-1.495383488862446e-8 
-5.205221880632401e-6 
4.058244166930431e-5 
-8.245290378342563e-6 
1.2310324471003194e-5 
7.715558318481054e-5 
0.009550105054802156 
0.0007165656662123759 
-2.9554077088812816e-6 
0.0001675416932446955 
0.00033922199914049436 
0.006807189977135711 
0.09118148453266685 
0.0376098623144466 
-1.0346582827474836e-6 
3.318346686681845e-7 
9.199161580065428e-7 
1.3270460066063712e-6 
3.404671197597808e-5 
-1.3027143707467764e-5 
4.901260771294751e-5 
-0.0009615556732856812 
0.0002462650863599958 
0.6753549311000928 
0.38677288758725026 
0.5004147433779684 
-3.93066475139439e-7 
7.99211457149335e-8 
4.6379325539680243e-7 
9.521031665382917e-5 
-3.676338237312236e-5 
-9.083686662819969e-5 
0.00048587258744561736 
-0.00043621826662909244 
-0.0006934864552379547 
0.015122838251263274 
0.04348189456544843 
-0.0007511966089178663 
0.0006394725947905804 
6.195683472235591e-6 
-2.307595970075594e-6 
-1.1730334709139917e-5 
1.3097792335194693e-5 
0.00032065833393710755 
-0.00038913920947830703 
0.6898813939838384 
0.39346420992653436 
4.647782985641976e-7 
-4.350288137483748e-7 
-1.5572727915459324e-6 
6.660186383694209e-5 
1.4939731595056416e-5 
1.7114998912921133e-6 
-2.689074395921995e-5 
-0.0032386533512497122 
0.005721877999097892 
-0.001404160233192104 
0.01138627279601123 
-0.005635939499265957 
0.0012257094775936005 
0.0006498174602474081 
-0.00031340420233799297 
5.567474116977033e-8 
-2.776034618615101e-7 
2.596048523715943e-7 
1.0018610711172207e-5 
-2.4504242701762257e-5 
2.1992307142710278e-5 
-0.00018036320041442725 
0.0002461932173775442 
0.0002859980673517014 
-0.0006207517679710142 
3.8998615744273604e-5 
-1.3531381303102625e-9 
1.4391112331120893e-9 
-1.6299858352980809e-6 
3.086451606440159e-6 
-7.02595212695337e-5 
-3.175562687326299e-5 
1.6180843204380326e-5 
0.00011434708860848334 
5.514627373827506e-10 
2.3850735839927075e-9 
2.951632055219776e-6 
2.020699169203686e-6 
0.00021308629266003837 
0.0001896132782297546 
0.0007052364723588145 
-0.000513230736406682 
-0.00031838678121786805 
0.5336834734606867 
0.2521149164566589 
0.22147933271390818 
1.3590713941390017e-6 
-1.8817869858504292e-6 
1.474590958687276e-6 
-0.00010553646780673211 
-1.4428338952408926e-5 
5.688423891700922e-5 
-2.2465514200011227e-7 
1.312772343311123e-7 
1.0991089692562202e-7 
-4.0878975717138945e-5 
3.8695265194411564e-5 
1.981054755711173e-5 
9.051781176050742e-5 
-1.2424290398098306e-6 
7.26317869396094e-5 
0.0009716957486569421 
-0.00041465933991727136 
6.347443439938117e-5 
3.6636024989625104e-9 
7.171833826214334e-9 
1.1855000766917837e-8 
1.0388851275649289e-5 
-1.3957480141589153e-5 
4.1793612747977366e-6 
-9.458493442488175e-5 
0.0001999003031742258 
0.00022640463899903563 
-0.0011892443136309887 
0.0008157712735908366 
-0.0005216396614288064 
-0.0006541013747856022 
3.7251856601027995e-7 
7.136774658830726e-5 
-2.1437881455769077e-5 
3.2749524238484475e-8 
-5.0574599558270395e-6 
-2.6619006155092055e-5 
4.816381780393474e-5 
6.744444504754399e-8 
1.1623225909994755e-7 
-1.9234142507759926e-6 
5.538521741321204e-6 
0.00040814072998690624 
-7.762465540689189e-5 
0.0003626685665187651 
0.0009965876685096556 
0.0017769696773674575 
-0.001981208297912148 
0.001078178919044338 
-0.0004947977580173886 
-5.983732426942306e-5 
4.280934924112583e-9 
-3.880015498371742e-9 
1.0990442802985461e-5 
-2.6400437124909846e-6 
-0.00013763573036377016 
-2.7610072758137546e-5 
0.00030134788452135746 
-0.00010309575752693731 
-1.3078244095454194e-8 
1.7344665554976123e-8 
-8.049923402514854e-6 
8.045797885423406e-6 
0.00018201487574576785 
-7.163009507271578e-5 
-0.0009534755698107414 
0.0010782560023642174 
0.2926379221622624 
0.10459136814213756 
1.9271926761459184e-6 
1.5757922147774801e-7 
-6.106151223522081e-5 
-4.349923940697772e-5 
0.0008027019697886356 
0.00014720146205424915 
-0.00037739552569303954 
1.8579397257257804e-10 
9.700709241020717e-9 
1.0637738441309591e-7 
-4.54995639251949e-6 
-3.2247705513175595e-6 
3.072565193108323e-6 
-3.6477083717570965e-5 
9.055371734457522e-5 
8.197104225273802e-5 
4.4018315888436364e-5 
-5.798482852461596e-6 
-0.001018409003522502 
0.0007798028404878017 
-8.857328981488584e-7 
2.5334115940776395e-9 
-8.83692840830708e-5 
-1.6234476271420306e-5 
-0.0004629256316192602 
0.00045766593989591484 
2.353111322235427e-5 
4.458487200131443e-5 
-2.193626811295105e-6 
-7.4743052722624e-6 
1.9120494743895655e-6 
9.723805965222975e-6 
-3.2148958573511214e-5 
-9.348115612267328e-5 
-5.03566222823663e-5 
0.0014036963622249864 
-0.0004921580322467113 
-0.0021376892891673102 
-1.7816808317038792e-8 
2.8437283019678226e-8 
5.460027714070994e-9 
-4.6968050757172807e-7 
6.736122018059251e-7 
4.518064424004768e-6 
-0.00010726802964774374 
0.00020620734512278284 
-5.3933736796966605e-5 
0.00033143514050257825 
-0.00039413343554532936 
-0.00014680198780157793 
0.00040932193337727513 
-0.0001848887862115857 
-3.4187927251704956e-9 
1.3668400794323993e-8 
-4.159118667642936e-6 
4.369062216991502e-6 
0.00018321955142351518 
-0.00011623295188524106 
-0.00043727904824038694 
0.0011852899973356255 
0.0026559486930658074 
0.0015668522210128498 
2.2464082692531148e-8 
-1.2195965582378395e-8 
-6.924124720314774e-7 