# vtk DataFile Version 3.0 
Unstructured Grid 
ASCII 
DATASET UNSTRUCTURED_GRID
POINTS 2173 float 
-0.5 -0.5 0  
0.5 -0.5 0  
0.5 0.5 0  
-0.5 0.5 0  
-0.475 -0.5 0  
-0.45 -0.5 0  
-0.425 -0.5 0  
-0.4 -0.5 0  
-0.375 -0.5 0  
-0.35 -0.5 0  
-0.325 -0.5 0  
-0.3 -0.5 0  
-0.275 -0.5 0  
-0.25 -0.5 0  
-0.225 -0.5 0  
-0.2 -0.5 0  
-0.175 -0.5 0  
-0.15 -0.5 0  
-0.125 -0.5 0  
-0.1 -0.5 0  
-0.075 -0.5 0  
-0.05 -0.5 0  
-0.025 -0.5 0  
-1.3761214e-12 -0.5 0  
0.025 -0.5 0  
0.05 -0.5 0  
0.075 -0.5 0  
0.1 -0.5 0  
0.125 -0.5 0  
0.15 -0.5 0  
0.175 -0.5 0  
0.2 -0.5 0  
0.225 -0.5 0  
0.25 -0.5 0  
0.275 -0.5 0  
0.3 -0.5 0  
0.325 -0.5 0  
0.35 -0.5 0  
0.375 -0.5 0  
0.4 -0.5 0  
0.425 -0.5 0  
0.45 -0.5 0  
0.475 -0.5 0  
0.5 -0.475 0  
0.5 -0.45 0  
0.5 -0.425 0  
0.5 -0.4 0  
0.5 -0.375 0  
0.5 -0.35 0  
0.5 -0.325 0  
0.5 -0.3 0  
0.5 -0.275 0  
0.5 -0.25 0  
0.5 -0.225 0  
0.5 -0.2 0  
0.5 -0.175 0  
0.5 -0.15 0  
0.5 -0.125 0  
0.5 -0.1 0  
0.5 -0.075 0  
0.5 -0.05 0  
0.5 -0.025 0  
0.5 -1.3761214e-12 0  
0.5 0.025 0  
0.5 0.05 0  
0.5 0.075 0  
0.5 0.1 0  
0.5 0.125 0  
0.5 0.15 0  
0.5 0.175 0  
0.5 0.2 0  
0.5 0.225 0  
0.5 0.25 0  
0.5 0.275 0  
0.5 0.3 0  
0.5 0.325 0  
0.5 0.35 0  
0.5 0.375 0  
0.5 0.4 0  
0.5 0.425 0  
0.5 0.45 0  
0.5 0.475 0  
0.475 0.5 0  
0.45 0.5 0  
0.425 0.5 0  
0.4 0.5 0  
0.375 0.5 0  
0.35 0.5 0  
0.325 0.5 0  
0.3 0.5 0  
0.275 0.5 0  
0.25 0.5 0  
0.225 0.5 0  
0.2 0.5 0  
0.175 0.5 0  
0.15 0.5 0  
0.125 0.5 0  
0.1 0.5 0  
0.075 0.5 0  
0.05 0.5 0  
0.025 0.5 0  
1.3761214e-12 0.5 0  
-0.025 0.5 0  
-0.05 0.5 0  
-0.075 0.5 0  
-0.1 0.5 0  
-0.125 0.5 0  
-0.15 0.5 0  
-0.175 0.5 0  
-0.2 0.5 0  
-0.225 0.5 0  
-0.25 0.5 0  
-0.275 0.5 0  
-0.3 0.5 0  
-0.325 0.5 0  
-0.35 0.5 0  
-0.375 0.5 0  
-0.4 0.5 0  
-0.425 0.5 0  
-0.45 0.5 0  
-0.475 0.5 0  
-0.5 0.475 0  
-0.5 0.45 0  
-0.5 0.425 0  
-0.5 0.4 0  
-0.5 0.375 0  
-0.5 0.35 0  
-0.5 0.325 0  
-0.5 0.3 0  
-0.5 0.275 0  
-0.5 0.25 0  
-0.5 0.225 0  
-0.5 0.2 0  
-0.5 0.175 0  
-0.5 0.15 0  
-0.5 0.125 0  
-0.5 0.1 0  
-0.5 0.075 0  
-0.5 0.05 0  
-0.5 0.025 0  
-0.5 1.3761214e-12 0  
-0.5 -0.025 0  
-0.5 -0.05 0  
-0.5 -0.075 0  
-0.5 -0.1 0  
-0.5 -0.125 0  
-0.5 -0.15 0  
-0.5 -0.175 0  
-0.5 -0.2 0  
-0.5 -0.225 0  
-0.5 -0.25 0  
-0.5 -0.275 0  
-0.5 -0.3 0  
-0.5 -0.325 0  
-0.5 -0.35 0  
-0.5 -0.375 0  
-0.5 -0.4 0  
-0.5 -0.425 0  
-0.5 -0.45 0  
-0.5 -0.475 0  
-0.002115384 -0.00023065208 0  
-0.20714286 -0.20714286 0  
0.20714286 -0.20714286 0  
0.20714286 0.20714286 0  
-0.20714286 0.20714286 0  
-0.28155318 -0.0017231192 0  
0.0017231192 -0.28155318 0  
0.28155318 0.0017231192 0  
-0.0017231192 0.28155318 0  
0.3319978 -0.33098683 0  
0.33098683 0.3319978 0  
-0.3319978 0.33098683 0  
-0.33098683 -0.3319978 0  
-0.14015679 -0.06698606 0  
0.06698606 -0.14015679 0  
0.14015679 0.06698606 0  
-0.06698606 0.14015679 0  
-0.1387125 -0.34573975 0  
0.34573975 -0.1387125 0  
0.1387125 0.34573975 0  
-0.34573975 0.1387125 0  
0.14046866 -0.34602854 0  
0.34602854 0.14046866 0  
-0.14046866 0.34602854 0  
-0.34602854 -0.14046866 0  
-0.05869875 -0.16617337 0  
0.18217777 -0.061504476 0  
0.062312964 0.18362015 0  
-0.18362015 0.062312964 0  
-0.034321424 -0.38563195 0  
0.38563195 -0.034321424 0  
0.034321424 0.38563195 0  
-0.38563195 0.034321424 0  
0.39586002 -0.2428538 0  
0.2428538 0.39586002 0  
-0.39586002 0.2428538 0  
-0.2428538 -0.39586002 0  
0.23688246 -0.38952246 0  
0.38952246 0.23688246 0  
-0.23688246 0.38952246 0  
-0.38952246 -0.23688246 0  
-0.24287231 -0.09948847 0  
0.09948847 -0.24287231 0  
0.24287231 0.09948847 0  
-0.09948847 0.24287231 0  
-0.11560815 -0.24300627 0  
0.24300627 -0.11560815 0  
0.11560815 0.24300627 0  
-0.24300627 0.11560815 0  
-0.40192315 -0.4008276 0  
0.4008276 -0.40192315 0  
0.40192315 0.4008276 0  
-0.4008276 0.40192315 0  
0.06409326 -0.40289903 0  
0.40289903 0.06409326 0  
-0.06409326 0.40289903 0  
-0.40289903 -0.06409326 0  
0.2962961 -0.23982804 0  
0.23982804 0.2962961 0  
-0.2962961 0.23982804 0  
-0.23982804 -0.2962961 0  
-0.28087237 -0.21196799 0  
0.21196799 -0.28087237 0  
0.28087237 0.21196799 0  
-0.21196799 0.28087237 0  
-0.0901279 0.007867504 0  
-0.05002927 -0.07494272 0  
0.0873353 -0.009871756 0  
0.0071518295 0.09216282 0  
-0.14120433 -0.1484696 0  
-0.14581114 0.13960092 0  
0.1458264 -0.14505939 0  
0.13960092 0.14581114 0  
0.41838804 -0.3182741 0  
0.3182741 0.41838804 0  
-0.41838804 0.3182741 0  
-0.3182741 -0.41838804 0  
0.32118136 -0.41712493 0  
0.41712493 0.32118136 0  
-0.32118136 0.41712493 0  
-0.41712493 -0.32118136 0  
-0.19707234 -0.014843048 0  
0.018050108 -0.20183705 0  
0.19707234 0.014843048 0  
-0.014843048 0.19707234 0  
-0.10938372 -0.41847488 0  
0.41847488 -0.10938372 0  
0.10938372 0.41847488 0  
-0.41847488 0.10938372 0  
0.15773043 -0.4267032 0  
0.4267032 0.15773043 0  
-0.15773043 0.4267032 0  
-0.4267032 -0.15773043 0  
-0.3204562 -0.07174808 0  
0.07174808 -0.3204562 0  
0.3204562 0.07174808 0  
-0.07174808 0.3204562 0  
0.02801032 -0.07269879 0  
-0.31817523 0.069836795 0  
-0.069836795 -0.31817523 0  
0.31817523 -0.069836795 0  
0.069836795 0.31817523 0  
0.43106207 -0.17757268 0  
0.17757268 0.43106207 0  
-0.43106207 0.17757268 0  
-0.17757268 -0.43106207 0  
0.0703783 0.071201205 0  
-0.051593844 0.064346604 0  
0.099701226 -0.08333426 0  
0.2863281 -0.17248559 0  
0.17248559 0.2863281 0  
-0.2863281 0.17248559 0  
-0.17248559 -0.2863281 0  
-0.2341888 0.04979648 0  
-0.049194112 -0.231281 0  
0.23358595 -0.04946041 0  
0.04979648 0.2341888 0  
-0.009939441 -0.13691185 0  
-0.26560438 -0.17864102 0  
0.17864102 -0.26560438 0  
0.26560438 0.17864102 0  
-0.17864102 0.26560438 0  
0.013302229 -0.43510666 0  
0.43510666 0.013302229 0  
-0.013302229 0.43510666 0  
-0.43510666 -0.013302229 0  
0.09432827 0.114700764 0  
-0.11539384 0.093188405 0  
-0.3413634 -0.005100272 0  
0.005100272 -0.3413634 0  
0.3413634 0.005100272 0  
-0.005100272 0.3413634 0  
-0.19817708 -0.3508856 0  
0.3508856 -0.19817708 0  
0.19817708 0.3508856 0  
-0.3508856 0.19817708 0  
-0.34100306 -0.27216324 0  
0.27216324 -0.34100306 0  
0.34100306 0.27216324 0  
-0.27216324 0.34100306 0  
-0.20269383 -0.14403741 0  
0.14393912 -0.2028372 0  
0.2026342 0.14393856 0  
-0.14393856 0.2026342 0  
-0.1030633 -0.10524017 0  
-0.4394695 -0.104853734 0  
0.104853734 -0.4394695 0  
0.4394695 0.104853734 0  
-0.104853734 0.4394695 0  
-0.44156647 -0.44156647 0  
0.44156647 -0.44156647 0  
0.44156647 0.44156647 0  
-0.44156647 0.44156647 0  
-0.2683254 -0.44465622 0  
0.44465622 -0.2683254 0  
0.2683254 0.44465622 0  
-0.44465622 0.2683254 0  
0.2654342 -0.4435478 0  
0.4435478 0.2654342 0  
-0.2654342 0.4435478 0  
-0.4435478 -0.2654342 0  
-0.27373606 -0.34534052 0  
0.34534052 -0.27373606 0  
0.27373606 0.34534052 0  
-0.34534052 0.27373606 0  
-0.05307205 -0.4481981 0  
0.4481981 -0.05307205 0  
0.05307205 0.4481981 0  
-0.4481981 0.05307205 0  
-0.35614902 -0.19390328 0  
0.19390328 -0.35614902 0  
0.35614902 0.19390328 0  
-0.19390328 0.35614902 0  
-0.14022674 -0.012452113 0  
0.14171903 0.011271359 0  
-0.01125192 0.14089845 0  
-0.19556868 -0.06932378 0  
0.070511825 -0.19668652 0  
0.19556868 0.06932378 0  
-0.06932378 0.19556868 0  
-0.24951252 -0.039742906 0  
0.04037078 -0.2503529 0  
0.24951252 0.039742906 0  
-0.039742906 0.24951252 0  
0.44100407 -0.36164257 0  
0.36164257 0.44100407 0  
-0.44100407 0.36164257 0  
-0.36164257 -0.44100407 0  
-0.4451273 -0.36589316 0  
0.36589316 -0.4451273 0  
0.4451273 0.36589316 0  
-0.36589316 0.4451273 0  
0.1121834 -0.30242515 0  
0.30242515 0.1121834 0  
-0.1121834 0.30242515 0  
-0.30242515 -0.1121834 0  
-0.115146436 -0.19087775 0  
0.19190264 -0.11309679 0  
0.11520548 0.19263776 0  
-0.19263776 0.11520548 0  
-0.08287991 -0.37025127 0  
0.37025127 -0.08287991 0  
0.08287991 0.37025127 0  
-0.37025127 0.08287991 0  
0.23791528 -0.24381089 0  
0.24381089 0.23791528 0  
-0.23791528 0.24381089 0  
-0.24381089 -0.23791528 0  
-0.44626984 -0.21174923 0  
0.21174923 -0.44626984 0  
0.44626984 0.21174923 0  
-0.21174923 0.44626984 0  
0.35174853 -0.37705234 0  
0.37705234 0.35174853 0  
-0.35174853 0.37705234 0  
-0.37705234 -0.35174853 0  
-0.048605647 -0.023262763 0  
-0.1551113 -0.21381997 0  
0.21381997 -0.1551113 0  
0.1551113 0.21381997 0  
-0.21381997 0.1551113 0  
-0.29403278 -0.30027482 0  
0.30027482 -0.29403278 0  
0.29403278 0.30027482 0  
-0.30027482 0.29403278 0  
0.12173745 -0.390654 0  
0.390654 0.12173745 0  
-0.12173745 0.390654 0  
-0.390654 -0.12173745 0  
-0.12236246 -0.2979882 0  
0.2979882 -0.12236246 0  
0.12236246 0.2979882 0  
-0.2979882 0.12236246 0  
-0.0945969 -0.046371013 0  
0.035276897 -0.027358124 0  
-0.0076714605 0.051946 0  
-0.30809116 -0.17165439 0  
0.17165439 -0.30809116 0  
0.30809116 0.17165439 0  
-0.17165439 0.30809116 0  
-0.16592422 -0.10879113 0  
0.10700909 -0.1687818 0  
0.16864619 0.10664837 0  
-0.10664837 0.16864619 0  
-0.16784625 -0.38069874 0  
0.38069874 -0.16784625 0  
0.16784625 0.38069874 0  
-0.38069874 0.16784625 0  
-0.4563872 -0.05993889 0  
0.05993889 -0.4563872 0  
0.4563872 0.05993889 0  
-0.05993889 0.4563872 0  
0.31103167 -0.37412483 0  
0.37412483 0.31103167 0  
-0.31103167 0.37412483 0  
-0.37412483 -0.31103167 0  
-0.3909646 -0.012754724 0  
0.012754724 -0.3909646 0  
0.3909646 0.012754724 0  
-0.012754724 0.3909646 0  
0.44915667 -0.21679194 0  
0.21679194 0.44915667 0  
-0.44915667 0.21679194 0  
-0.21679194 -0.44915667 0  
0.045831423 0.12033131 0  
-0.12662303 0.045442794 0  
-0.3107799 -0.37355793 0  
0.37355793 -0.3107799 0  
0.3107799 0.37355793 0  
-0.37355793 0.3107799 0  
0.04152367 0.021693805 0  
-0.08040017 -0.2675595 0  
0.26794365 -0.08044455 0  
0.080500565 0.2680441 0  
-0.2680441 0.080500565 0  
-0.13753757 -0.45578164 0  
0.45578164 -0.13753757 0  
0.13753757 0.45578164 0  
-0.45578164 0.13753757 0  
-0.05507968 -0.12135967 0  
0.14172421 -0.09428923 0  
0.2571752 -0.19664502 0  
[...]
POINT_DATA 2173 
SCALARS T float 
LOOKUP_TABLE default 
-2.6174295026155852e-20 
4.250104878388341e-19 
-3.3244516860116528e-18 
-4.130460936268449e-18 
-1.1738152647144737e-18 
3.400690991934854e-19 
1.1945853518782206e-17 
-7.646557187936795e-19 
3.614364268778615e-18 
5.213798976716483e-18 
3.6107903038591715e-18 
3.832975759207528e-18 
1.4849222346510797e-19 
-1.742842427297039e-18 
2.56186493072217e-18 
3.586221077226228e-19 
1.918809565435062e-18 
5.0087502693381916e-18 
2.6070889290304227e-18 
4.635766351589375e-18 
-5.490135762441314e-18 
1.334362280695807e-18 
9.953530268494412e-18 
-9.089366474378404e-18 
1.1393004583892338e-17 
-1.5236507827470527e-17 
6.577371004575852e-18 
-2.3745362643060878e-17 
2.813760528871182e-18 
2.631887931705912e-19 
1.0235278671629193e-18 
3.699309562119905e-18 
1.5919231095812973e-18 
2.0608307884632477e-17 
-9.97122241622683e-18 
1.2415249858220239e-17 
-1.649342215483006e-17 
-1.04630967750847e-17 
-1.618645825930047e-17 
-1.3993426551409207e-17 
-8.971778097591997e-18 
-5.718756515196195e-18 
-7.28322554967084e-18 
8.809194099139485e-18 
7.210330655569323e-18 
1.887888371642537e-17 
1.9308981225865424e-17 
2.67411790685739e-17 
1.9664910496759097e-17 
3.737002547248109e-17 
4.1871482569647144e-17 
8.361131339977178e-17 
3.599354200150043e-17 
2.6659522590782687e-17 
2.0494920124149878e-17 
3.8369033103879164e-17 
3.4650153388029093e-17 
3.0089380093451156e-17 
8.515428882984366e-19 
4.461139173237679e-17 
3.731262841979646e-17 
-5.947612241853802e-17 
5.927694768745392e-19 
5.634776556214491e-17 
-1.2543701821387111e-16 
2.0071125824135026e-16 
-1.3757038072112111e-16 
-7.789420967646703e-17 
1.271995723013928e-17 
-1.0251497207210441e-16 
9.61865574795227e-17 
-2.242315188432846e-17 
-2.079465358831316e-16 
1.7481152141056443e-16 
-3.922516396712927e-16 
-1.2099318300586327e-17 
-4.3072104028640087e-17 
-5.039003318682895e-17 
-4.404410165417437e-17 
-3.270259307754053e-17 
-1.61438752947061e-17 
6.79086981883051e-17 
-7.942404785182139e-17 
-3.1437430662324374e-17 
-7.046028842708499e-17 
-1.627774896235347e-17 
9.787662287201818e-17 
1.8208709505740915e-16 
-1.4734689507520754e-16 
-1.2579062191631265e-16 
-5.183908337422993e-16 
3.2103923807516763e-16 
3.931701720636169e-17 
-1.971637238284025e-16 
1.1202121214350251e-16 
-4.956166669357097e-16 
2.6751749593902633e-17 
-1.3087079159843298e-16 
-6.367671322282286e-17 
-8.804466449684757e-17 
-3.364198476559893e-16 
2.0889505801867583e-16 
-5.4037171345368387e-17 
-2.0105714130866867e-16 
8.090172299837118e-16 
-1.941859251130567e-15 
-3.7549218065969195e-16 
-4.076351492620126e-16 
-1.8196481718751366e-16 
-1.5428335378431927e-16 
1.5163433654346096e-16 
-1.9226772991599007e-16 
-1.919383460232097e-16 
-1.0389385523181494e-15 
-2.4621326736393694e-16 
-1.8944022381129532e-16 
3.1020457281288617e-17 
1.0400611693407293e-18 
1.0680307326237223e-16 
1.8138436393363725e-17 
-2.8695248557510835e-17 
2.09889444277637e-17 
3.592163380402366e-17 
-1.8633505751992432e-16 
8.865330607976673e-17 
3.0640932019850376e-17 
1.8168685917659702e-16 
-1.992153595357353e-16 
7.10581063567749e-16 
-7.150369518375666e-16 
4.0082588874610253e-16 
4.546745366852921e-17 
7.451605525144842e-17 
-5.773626686486321e-17 
1.223577058388127e-16 
-2.4394176807995782e-17 
4.601520798891976e-17 
-3.531067177820945e-17 
1.8231659019112452e-17 
6.60571120380669e-18 
-1.5877689445133597e-17 
1.2640861192261806e-17 
-8.530635257616315e-18 
-1.625340840356459e-18 
-2.86460314018032e-18 
-5.3006339697988906e-20 
-2.3650947514909e-19 
2.2625640000913442e-18 
-1.1338630693874787e-18 
3.960358391517294e-18 
-1.1085172278244713e-18 
2.2053413123893985e-18 
4.1805278213075286e-18 
-7.5764168222442e-18 
3.770011407421222e-19 
1.9457826102419454e-19 
2.440859678298318e-18 
-9.867764669560945e-18 
7.502594332071398e-19 
1.5214198478324782e-18 
1.4505888292519311e-5 
-1.0197528051573615e-6 
-2.315181741744113e-5 
0.00019256985636878499 
0.17961567067771594 
0.05120806423850052 
-6.61665890183821e-6 
-9.348984308078888e-7 
-0.000826473777163152 
-1.8987685669488164e-5 
1.6444043287859578e-5 
0.00015826406916864773 
-2.656663430943309e-7 
0.001014865451776607 
-6.8028839318281364e-6 
7.963742422604813e-6 
0.012531539604351204 
3.836362192255026e-7 
-7.509374323787662e-5 
0.0008111739649334182 
0.049507859523143 
-1.3851906594306217e-5 
0.00020707342265400072 
-0.0027731883364655856 
-9.641346655524406e-6 
6.471117581122217e-7 
1.9602927885057414e-5 
-0.0002997403556782929 
0.31018507373301585 
4.606404175591415e-6 
1.2210655635667542e-6 
-0.0006607758078239857 
0.003408775806183981 
1.419950995657795e-5 
0.00013238068605734413 
0.000965522605135082 
-2.6114173639693264e-6 
-3.4309963144809663e-6 
-0.00010146351914271917 
-0.0002661367337085336 
-3.1918564364517056e-6 
0.0004982782221599873 
6.138746466328295e-6 
-0.00013679077841435153 
0.003952971881409207 
7.230627362038634e-8 
1.4837041833143078e-5 
-0.0006955856301669252 
0.5423308424838297 
3.0080408519701063e-6 
-3.4457263104727433e-6 
-6.998000592780992e-5 
0.00041946134192991525 
-1.4848532343386194e-5 
0.00012375320931735367 
0.0003637969193117293 
-7.394437189375557e-5 
-2.9587999221378318e-5 
-4.18670741890327e-5 
0.02447433608257817 
-3.217260095669308e-7 
9.476667098476496e-7 
2.9439584939148716e-6 
-0.00011399453267371252 
0.010573847730058547 
0.0062015043097200595 
-8.991985522372785e-6 
3.013907174746433e-5 
-0.0004583131784926439 
-7.828623145030283e-6 
0.24223838205553244 
1.6347750169039698e-5 
0.00032376243985299784 
-1.2769416099915414e-5 
-2.836977758739282e-5 
0.00032413895560954616 
3.893521785660151e-7 
-1.0205766692526464e-5 
-0.00015740909353801513 
-0.0006217508701160277 
-1.1729702873494919e-6 
0.04623762636184661 
-9.271097883652682e-6 
-5.317000321768066e-5 
-7.056139701739993e-5 
-1.5210208153663821e-6 
2.2225436744910177e-5 
1.419963783918891e-5 
0.0009405031770771391 
3.26612571822864e-6 
-4.278320443825805e-5 
-0.000566412298410827 
-8.823811475850117e-7 
0.0006334640810920629 
8.94626043160599e-6 
0.0001100111037656027 
-0.0021018864261104276 
-2.9290458532013478e-5 
0.10935089826171121 
-1.5074230828927435e-6 
-4.1500597811131695e-6 
-0.0004959317195814205 
5.1047366621278256e-6 
0.0004002351901990687 
0.0001959255064742625 
3.0994359005661603e-6 
-4.117108255080419e-5 
0.004458853515421791 
-2.900879066313818e-5 
2.005102086704825e-5 
0.0005463250271388736 
0.18457556006302495 
-3.3580289599211708e-6 
0.3100150985552063 
-3.174006014055595e-6 
3.2430526312365e-5 
-0.0018323696922626371 
5.844348677782647e-6 
-3.4349209596733004e-6 
-1.873913300456161e-5 
-1.3464467085961287e-5 
0.016249933678528776 
1.3612163717979846e-6 
3.8159006770608866e-5 
0.0002141026860249945 
-8.535637718338846e-5 
-0.0004819450317140399 
0.0976476843935544 
0.009160845652022824 
3.919595575228755e-8 
6.847344684484791e-5 
-0.0007487450287863088 
1.2028587807904233e-6 
-5.170195649762459e-5 
0.0008680220387045648 
0.013315403432173268 
1.562420563650668e-6 
-2.2578380838875413e-5 
-4.380968540079793e-6 
0.00034941159094516465 
-2.3749689410208008e-5 
2.226931540591559e-5 
0.0002513473478835818 
0.08918214101017867 
-1.6786566948054372e-5 
-1.9053186008471237e-7 
-7.884223866030596e-6 
-0.00012149304546217882 
-0.0004370666621579302 
9.456278846717982e-7 
3.4161280286855756e-6 
-7.070218123243599e-5 
0.00013015422904201452 
6.509406187091158e-7 
-3.386230008376695e-5 
0.00021758113084489956 
0.0004459280268982388 
-5.918560154691151e-6 
-5.0635172597416035e-6 
-0.0002403495128864776 
-2.1936089108680016e-6 
1.1325815748388352e-6 
-1.4913620743932502e-5 
3.07067852338785e-5 
0.0027137617667732403 
-1.7468226079395958e-6 
7.848788643470604e-6 
-0.00010807907678273418 
-1.1259679994021444e-5 
1.90738913128608e-6 
-1.5630058587893676e-5 
-0.00026189621842543867 
0.0007416196142350736 
0.017598382661639322 
4.98197404765755e-6 
-0.0016788775546111069 
0.003101427549856136 
1.8728708661000068e-5 
0.0001412587891864871 
0.006192051885330415 
0.018199245744284703 
5.751046699131576e-7 
1.8208971799864253e-5 
0.004931278826307613 
5.552209896441218e-6 
1.8104529382529588e-5 
0.00021825950670369848 
2.953136328392376e-6 
1.6171325717257482e-6 
-2.073215733472131e-6 
-1.6103075125828974e-6 
3.874830107636124e-5 
2.422171782631569e-7 
-0.0001609879920937007 
0.00020611774115060613 
-2.0968053169473415e-5 
-2.4689964459198836e-7 
-5.0590460186387315e-6 
-0.0005938876551920844 
0.5187082340598809 
3.836754609778719e-6 
-9.705797531869787e-6 
0.00028348907768716827 
0.016910223221422712 
2.6700648669703162e-5 
4.8201710812425075e-5 
0.048183694017542654 
-1.7262541133657943e-6 
8.616572277022959e-7 
9.904051576594243e-6 
4.139892725764772e-5 
0.0001713366000882932 
1.5164893669190843e-5 
-0.00022093919297043807 
-0.00021324994976218694 
-1.3566843332525877e-6 
0.00015720535470456536 
1.1276988584818509e-7 
3.604801978750264e-5 
-0.0007162881321687212 
0.4839476242469884 
-5.187821398606972e-7 
-1.0588562154365771e-5 
1.671046779328284e-5 
0.0019983948160741814 
-6.698590480557073e-6 
-4.8051425192072256e-5 
0.0004721679174443954 
-1.3817100859458836e-5 
-1.676814166563549e-6 
-8.327813477858144e-5 
0.0009121977678219323 
0.23801063012859996 
0.000530242438286357 
-1.4169697637886433e-5 
0.0004096333157591386 
-3.022286444268383e-6 
-5.9046738191839506e-6 
-5.553779365115046e-5 
0.0017345431251004349 
2.5182451929445232e-5 
-9.722530027381083e-6 
-0.00028217345020837317 
0.058628675132485236 
-3.4848103077318118e-6 
1.2572824448067576e-5 
-3.2420591975900826e-5 
0.00677458239931328 
-1.1065535445889268e-5 
-1.6433337697388374e-5 
-3.180050870788329e-6 
0.000597198121532194 
-5.236583606020858e-6 
-0.00015155521583878507 
-0.0005312173344842805 
-2.6047089458192883e-6 
0.0003002687858448326 
-5.900255099756194e-6 
-0.0001277260818317968 
0.000675730997055963 
-1.853108255100861e-5 
8.765812650796795e-5 
-5.7877349430860305e-6 
1.2742525542579858e-6 
-0.00029515980856655743 
0.06831267103741868 
-1.2980912099309041e-6 
-7.160731384658801e-6 
-5.62291418188611e-5 
0.00011431955162590256 
0.00010882094169867781 
-2.664787748586977e-6 
-9.109520209830607e-5 
0.0009642115783404512 
0.35082704071965015 
-3.805711656858259e-6 
-1.4240428400426396e-5 
-4.1485085675811206e-5 
5.359151869947747e-5 
-7.5546789313238094e-6 
1.2011987006219423e-5 
-1.2733292156500857e-5 
-0.00025801520527613816 
0.1831979784233973 
2.2051508566756319e-7 
-5.250839286357837e-5 
1.4274072394637598e-6 
-5.492599399981801e-7 
2.00206227381486e-5 
-0.0003697928236945885 
-0.00021122459354541706 
1.8788264763427244e-5 
-8.3292253018745e-5 
-6.66988024087842e-5 
5.138699000233145e-7 
-5.609358870985019e-6 
-6.45289103244111e-5 
0.00015427461846120058 
-3.602953491795595e-6 
6.0902797791061194e-5 
0.0029909996587613084 
0.002002205914816981 
-6.838027630084955e-6 
-6.991341339082074e-5 
0.0028859268246358843 
0.0007728214054443418 
-7.4104836106527194e-6 
2.655475005462517e-6 
-5.632525470364028e-6 
-1.7847617321328377e-5 
0.0025540844381957313 
0.17313672814761463 
0.10880835966941887 
3.174477700286821e-6 
-2.9762358533735684e-5 
0.0010002538410702692 
3.23681026783609e-6 
1.0481905170414685e-5 
-4.7061456266873454e-5 
0.00011871134507148835 
1.2821519429317919e-5 
-1.4251490515538756e-5 
3.226377648881625e-6 
-3.160807992292571e-5 
-0.0033806550715625426 
-3.083239989468687e-6 
-1.7332449585534287e-6 
1.1401460489125879e-5 
-0.00020060832996657407 
0.0005545314853592889 
1.5807744814292336e-6 
0.029906192209788855 
-1.8029694282651971e-6 
-5.497404803095084e-5 
0.0011212977940912353 
-5.135940519905837e-6 
-1.9808423734009812e-5 
0.0001242262236669026 
5.954178640180029e-5 
-2.448219092753657e-7 
-1.3697635511361278e-5 
0.002021209071289066 
0.0006980251360494208 
-4.511250458676985e-5 
-4.493118312584397e-6 
-0.00010323661493138078 
0.0006526152099791803 
-2.5397475473462554e-6 
0.2910303519024045 
-2.2622487116886308e-5 
-0.00019032275881017332 
-3.8062292772994335e-7 
8.960548087628563e-5 
0.00014986644951504852 
-1.6501700367413608e-6 
-4.608176950256142e-7 
-2.8587884625442553e-5 
0.0005630651734487958 
0.012212307537399913 
-3.271753347577181e-6 
1.6233835020004363e-5 
-8.24883411699407e-5 
-1.962630978818226e-5 
1.5340774720087504e-6 
4.862931479511724e-7 
1.9576797350966154e-5 
0.0009631881011596822 
-5.6834833143974974e-6 
3.297627689577391e-5 
0.00011850742716074826 
-4.440491390193746e-6 
-1.7673889001133184e-6 
-4.5802286800253684e-5 
5.066910037367061e-5 
-4.873272347956006e-6 
0.13186756100934532 
-4.139918886939334e-6 
-5.6905384197250834e-5 
0.002419640090155931 
0.009051498128113495 
8.118293204492194e-5 
0.0007301602602966099 
0.0002413841308176057 
0.27785758350846623 
0.007023471477355621 
-1.8516319769866608e-6 
7.356105441040658e-5 
0.0032458856233345216 
0.0013519051744160238 
2.2206555119860474e-6 
-8.279192918930944e-5 
0.00024379487602449668 
1.966678295932483e-5 
1.085303879353088e-6 
-2.2973399626416663e-5 
0.00018218737531256718 
0.04923865165155014 
-1.7746102785126902e-5 
6.962463090425898e-5 
8.364693569151093e-5 
1.964725415159424e-6 
6.503257633737298e-5 
0.0001846632566254335 
2.9546818617199765e-5 
0.0005547737941776888 
0.02232210415713402 
2.45561232209717e-6 
8.900959299824717e-5 
0.00043770628519009344 
-2.0819620496816948e-5 
-3.4940575093131295e-6 
0.0012002504154563602 
0.4077250200824634 
-2.715114253821952e-6 
8.081241594011725e-5 
0.021699170281787528 
1.6395428660507078e-7 
1.3176590707990527e-5 
0.0055695212618473745 
-8.168159578804335e-7 
0.07643875920264762 
1.5538532858080062e-6 
-1.618743715736678e-5 
0.0012149062165196203 
9.915515579511112e-7 
-1.0967014437867973e-5 
4.221881253896835e-5 
0.000988952413077332 
-1.5985489811074982e-6 
1.3478548992733e-5 
-1.209198347143647e-5 
0.5015301743997298 
-4.311788696828022e-6 
8.886026028246953e-5 
0.004024667449204422 
-2.740338527243623e-6 
1.5098949108650719e-6 
-3.294803891482807e-5 
0.0006313485544800204 
0.0007132595842614119 
8.558064907544567e-7 
-9.215724243560305e-6 
0.0005628211107945393 
0.07172060023449998 
-1.8578254669068272e-6 
3.0320072200436227e-5 
6.351234898426709e-5 
0.05128896910793732 
0.00015287510213840902 
0.07715140785884893 
2.4669078695477907e-6 
2.4400590167952336e-5 
0.00025454145647931464 
3.836474375833235e-7 
-1.5846402960549952e-6 
-3.1284999550264767e-6 
9.176712212992766e-6 
6.344986004902693e-5 
-2.271605138912351e-5 
1.2817122033330912e-5 
0.000304734966699314 
0.013054134376797174 
0.10112170730550188 
-1.1681926283713488e-5 
0.000382472429780523 
0.015071711300398714 
-1.4470920993624171e-5 
-5.79245615234379e-6 
-4.2811655407423294e-5 
0.00047697757611200474 
0.0007420912199502111 
-2.874935744978822e-6 
1.1888906134204622e-6 
1.349600820787094e-5 
-0.00036995509554291916 
-0.0001929893718583398 
-9.578043003856116e-6 
-9.03429859903039e-5 
0.0739947596792339 
-4.442821171406167e-6 
4.36564990632617e-6 
1.3053692292538104e-5 
-0.0004177202951405191 
0.00012577975633699828 
-3.664549656618969e-7 
-8.732707024468312e-7 
-8.347265605197588e-7 
-4.4617232240826115e-6 
-3.8773992949765355e-5 
1.9332194969039767e-5 
0.00016426373261628548 
0.0006801795150205261 
-1.5213198302703542e-5 
0.3976227339754611 
0.5428051654153528 
0.4484757565545548 
2.9764497878848003e-6 
-1.0083178539586325e-6 
1.9130382948125747e-6 
-7.602156087995835e-5 
5.999090707721695e-5 
4.640511588426156e-6 
0.00016638720501873795 
-0.0005083886791014049 
0.0013219317773298946 
0.24685886237771773 
0.24697465834229637 
0.3403913987377019 
-4.3706534509234004e-6 
4.5015317843582617e-7 
0.28879888502793966 
0.3922629486485363 
1.6015964842795335e-5 
-3.264537038362729e-5 
5.70744717781503e-5 
0.000420187448664006 
0.40915861820796723 
0.4303554527798096 
-4.833132306271858e-7 
1.1223111646288693e-6 
-3.548289291839528e-5 
7.315728174812444e-6 
0.0008866986449752349 
-0.0010698084167139429 
-0.00019030500002218092 
0.0003733067021117996 
0.00010477316853909805 
0.00028572140495183125 
2.1966791425067004e-7 
7.422892738721591e-5 
-1.0416297264176145e-5 
-1.709921129547267e-5 
2.1140649499728047e-6 
1.7801485855816671e-6 
1.1662397395657788e-6 
1.679718144790456e-5 
-5.930011699072661e-6 
-2.548303406528912e-5 
-0.00030972489399543643 
-0.0003711501112862638 
0.00037170843267215293 
-0.00045309207231256944 
-0.00015310133121121841 
0.00044300967951905573 
2.54435792662329e-6 
-1.5196070435151473e-6 
4.599207590405805e-6 
8.915671538618176e-6 
-6.282567032219381e-6 
2.4774910988533324e-5 
-2.431771739656965e-5 
-1.4678236314476338e-6 
3.50988665728754e-6 
-2.0836675332367906e-7 
1.097452992696435e-5 
1.0769962171352837e-5 
0.00012027036780188065 
-1.5315523445044367e-5 
-6.439813482082481e-5 
5.684153702554958e-5 
0.08662317623188256 
0.04001127562277587 
0.026258644130826608 
3.07229224989603e-7 
2.1277681400187053e-6 
-6.26794788277604e-7 
6.690933275368402e-5 
-2.4162545326793288e-5 
-9.742352957126638e-6 
-0.002752392347485713 
0.0010488866186274515 
0.0008455031968400318 
4.217795280650977e-5 
5.032430278295304e-6 
1.623806137092291e-5 
-0.00021727383985334294 
0.00014860802914145303 
-3.618140612126324e-5 
-0.00030673995740865506 
-0.00011368337626361266 
0.0003408075063245178 
-5.081749751178056e-8 
-1.6744516464521984e-6 
2.208508595910172e-6 
-6.465668106018113e-6 
-7.676661395533763e-6 
1.674217344232128e-6 
0.000179690075398944 
-6.517063978039879e-5 
-6.725183060554605e-5 
0.0005062343497547477 
-0.0002454549566495247 
0.0001520941718730965 
-1.6053810532878524e-6 
2.320156383021657e-6 
-9.337943865339758e-7 
-8.358216415182243e-7 
2.2634213517746673e-5 
0.00016434102402799398 
0.00022706517139371433 
-1.1183763441258997e-5 
9.272788153646722e-5 
7.821275045092576e-5 
9.247890687773049e-9 
9.67641458746235e-6 
-3.64351535265847e-6 
-0.00022929181991773983 
-6.055886859739284e-6 
-7.174951877173342e-6 
-6.477590520786577e-5 
-3.492003505194254e-7 
-2.3549409049826195e-6 
0.012030451838583912 
0.004022104081133982 
0.0022967252388512178 
-3.4298266138804404e-6 
3.660906337861376e-6 
5.181599428919775e-6 
6.201614540016592e-6 
1.6270226523471898e-5 
-9.51751796569357e-6 
0.00022677487661149483 
0.0001854047941867575 
-1.299391703805039e-6 
5.807584809242719e-7 
2.50823321722496e-6 
7.0584956085299415e-6 
-3.452288750842704e-5 
-7.244628754958063e-5 
0.00022586182681062756 
-7.475593898675013e-5 
0.06970767066728038 
0.018991534357148943 
9.834760831420198e-7 
-1.6082920230348947e-6 
7.120390370620145e-5 
1.5983084614090697e-5 
-0.0008510413461358314 
-0.0012265798516183416 
3.603431233819353e-6 
-2.2846420636286665e-6 
1.2380518905332113e-7 
-1.6711588986461612e-5 
8.403784534277326e-7 
9.849770813686591e-6 
0.00016353238283625435 
-0.00012502344818580074 
3.3357125133848846e-5 
-0.00013847087556560084 
-0.0005533248100363734 
0.00048213082393352253 
0.00043860043493434026 
-0.00015621162336447512 
-8.345792570200146e-8 
9.912237661718274e-7 
3.134071032166088e-5 
3.3571882886842303e-5 
-0.00018588293637338314 
-0.0003131139072213083 
0.00015947707369806137 
0.00044679246305046494 
-9.869623303324061e-6 
2.7110656294023706e-6 
1.1598829685161257e-5 
-0.00011537816764241779 
0.00014039994458959858 
3.7078510834367584e-5 
-0.0011324980825134711 
-1.450504937260825e-5 
0.001664860469323467 
1.6471099135280437e-6 
-6.439366561238404e-7 
7.154813456911186e-7 
1.0825785583399492e-5 
-9.407262182056845e-6 
1.0003100510425799e-5 
-5.202626390767809e-6 
4.633367098312986e-5 
-6.516035451218196e-5 
4.0233002290147034e-5 
9.920424722140384e-5 
8.065741692045603e-5 
-1.8271510853739015e-6 
1.122130573105972e-6 
-2.6886120671929124e-7 
7.122795360997399e-7 
1.1216842287054892e-6 
-5.772603897076764e-6 
-3.3898855132076986e-6 
-7.60962793255043e-5 
0.0002460449615636367 
-6.372149601548457e-5 
0.00040212162649489505 
3.2227911179793145e-5 
4.785764376317103e-5 
-1.7793181700906776e-5 
0.0008606805143185302 
-7.598682408115666e-6 
-6.259588091796553e-7 
0.00024207591742044152 
-0.00025526296708476467 
0.00014561458381150236 
0.0003504317751915922 