# vtk DataFile Version 3.0 
Unstructured Grid 
ASCII 
DATASET UNSTRUCTURED_GRID
POINTS 2173 float 
-0.5 -0.5 0  
0.5 -0.5 0  
0.5 0.5 0  
-0.5 0.5 0  
-0.475 -0.5 0  
-0.45 -0.5 0  
-0.425 -0.5 0  
-0.4 -0.5 0  
-0.375 -0.5 0  
-0.35 -0.5 0  
-0.325 -0.5 0  
-0.3 -0.5 0  
-0.275 -0.5 0  
-0.25 -0.5 0  
-0.225 -0.5 0  
-0.2 -0.5 0  
-0.175 -0.5 0  
-0.15 -0.5 0  
-0.125 -0.5 0  
-0.1 -0.5 0  
-0.075 -0.5 0  
-0.05 -0.5 0  
-0.025 -0.5 0  
-1.3761214e-12 -0.5 0  
0.025 -0.5 0  
0.05 -0.5 0  
0.075 -0.5 0  
0.1 -0.5 0  
0.125 -0.5 0  
0.15 -0.5 0  
0.175 -0.5 0  
0.2 -0.5 0  
0.225 -0.5 0  
0.25 -0.5 0  
0.275 -0.5 0  
0.3 -0.5 0  
0.325 -0.5 0  
0.35 -0.5 0  
0.375 -0.5 0  
0.4 -0.5 0  
0.425 -0.5 0  
0.45 -0.5 0  
0.475 -0.5 0  
0.5 -0.475 0  
0.5 -0.45 0  
0.5 -0.425 0  
0.5 -0.4 0  
0.5 -0.375 0  
0.5 -0.35 0  
0.5 -0.325 0  
0.5 -0.3 0  
0.5 -0.275 0  
0.5 -0.25 0  
0.5 -0.225 0  
0.5 -0.2 0  
0.5 -0.175 0  
0.5 -0.15 0  
0.5 -0.125 0  
0.5 -0.1 0  
0.5 -0.075 0  
0.5 -0.05 0  
0.5 -0.025 0  
0.5 -1.3761214e-12 0  
0.5 0.025 0  
0.5 0.05 0  
0.5 0.075 0  
0.5 0.1 0  
0.5 0.125 0  
0.5 0.15 0  
0.5 0.175 0  
0.5 0.2 0  
0.5 0.225 0  
0.5 0.25 0  
0.5 0.275 0  
0.5 0.3 0  
0.5 0.325 0  
0.5 0.35 0  
0.5 0.375 0  
0.5 0.4 0  
0.5 0.425 0  
0.5 0.45 0  
0.5 0.475 0  
0.475 0.5 0  
0.45 0.5 0  
0.425 0.5 0  
0.4 0.5 0  
0.375 0.5 0  
0.35 0.5 0  
0.325 0.5 0  
0.3 0.5 0  
0.275 0.5 0  
0.25 0.5 0  
0.225 0.5 0  
0.2 0.5 0  
0.175 0.5 0  
0.15 0.5 0  
0.125 0.5 0  
0.1 0.5 0  
0.075 0.5 0  
0.05 0.5 0  
0.025 0.5 0  
1.3761214e-12 0.5 0  
-0.025 0.5 0  
-0.05 0.5 0  
-0.075 0.5 0  
-0.1 0.5 0  
-0.125 0.5 0  
-0.15 0.5 0  
-0.175 0.5 0  
-0.2 0.5 0  
-0.225 0.5 0  
-0.25 0.5 0  
-0.275 0.5 0  
-0.3 0.5 0  
-0.325 0.5 0  
-0.35 0.5 0  
-0.375 0.5 0  
-0.4 0.5 0  
-0.425 0.5 0  
-0.45 0.5 0  
-0.475 0.5 0  
-0.5 0.475 0  
-0.5 0.45 0  
-0.5 0.425 0  
-0.5 0.4 0  
-0.5 0.375 0  
-0.5 0.35 0  
-0.5 0.325 0  
-0.5 0.3 0  
-0.5 0.275 0  
-0.5 0.25 0  
-0.5 0.225 0  
-0.5 0.2 0  
-0.5 0.175 0  
-0.5 0.15 0  
-0.5 0.125 0  
-0.5 0.1 0  
-0.5 0.075 0  
-0.5 0.05 0  
-0.5 0.025 0  
-0.5 1.3761214e-12 0  
-0.5 -0.025 0  
-0.5 -0.05 0  
-0.5 -0.075 0  
-0.5 -0.1 0  
-0.5 -0.125 0  
-0.5 -0.15 0  
-0.5 -0.175 0  
-0.5 -0.2 0  
-0.5 -0.225 0  
-0.5 -0.25 0  
-0.5 -0.275 0  
-0.5 -0.3 0  
-0.5 -0.325 0  
-0.5 -0.35 0  
-0.5 -0.375 0  
-0.5 -0.4 0  
-0.5 -0.425 0  
-0.5 -0.45 0  
-0.5 -0.475 0  
-0.002115384 -0.00023065208 0  
-0.20714286 -0.20714286 0  
0.20714286 -0.20714286 0  
0.20714286 0.20714286 0  
-0.20714286 0.20714286 0  
-0.28155318 -0.0017231192 0  
0.0017231192 -0.28155318 0  
0.28155318 0.0017231192 0  
-0.0017231192 0.28155318 0  
0.3319978 -0.33098683 0  
0.33098683 0.3319978 0  
-0.3319978 0.33098683 0  
-0.33098683 -0.3319978 0  
-0.14015679 -0.06698606 0  
0.06698606 -0.14015679 0  
0.14015679 0.06698606 0  
-0.06698606 0.14015679 0  
-0.1387125 -0.34573975 0  
0.34573975 -0.1387125 0  
0.1387125 0.34573975 0  
-0.34573975 0.1387125 0  
0.14046866 -0.34602854 0  
0.34602854 0.14046866 0  
-0.14046866 0.34602854 0  
-0.34602854 -0.14046866 0  
-0.05869875 -0.16617337 0  
0.18217777 -0.061504476 0  
0.062312964 0.18362015 0  
-0.18362015 0.062312964 0  
-0.034321424 -0.38563195 0  
0.38563195 -0.034321424 0  
0.034321424 0.38563195 0  
-0.38563195 0.034321424 0  
0.39586002 -0.2428538 0  
0.2428538 0.39586002 0  
-0.39586002 0.2428538 0  
-0.2428538 -0.39586002 0  
0.23688246 -0.38952246 0  
0.38952246 0.23688246 0  
-0.23688246 0.38952246 0  
-0.38952246 -0.23688246 0  
-0.24287231 -0.09948847 0  
0.09948847 -0.24287231 0  
0.24287231 0.09948847 0  
-0.09948847 0.24287231 0  
-0.11560815 -0.24300627 0  
0.24300627 -0.11560815 0  
0.11560815 0.24300627 0  
-0.24300627 0.11560815 0  
-0.40192315 -0.4008276 0  
0.4008276 -0.40192315 0  
0.40192315 0.4008276 0  
-0.4008276 0.40192315 0  
0.06409326 -0.40289903 0  
0.40289903 0.06409326 0  
-0.06409326 0.40289903 0  
-0.40289903 -0.06409326 0  
0.2962961 -0.23982804 0  
0.23982804 0.2962961 0  
-0.2962961 0.23982804 0  
-0.23982804 -0.2962961 0  
-0.28087237 -0.21196799 0  
0.21196799 -0.28087237 0  
0.28087237 0.21196799 0  
-0.21196799 0.28087237 0  
-0.0901279 0.007867504 0  
-0.05002927 -0.07494272 0  
0.0873353 -0.009871756 0  
0.0071518295 0.09216282 0  
-0.14120433 -0.1484696 0  
-0.14581114 0.13960092 0  
0.1458264 -0.14505939 0  
0.13960092 0.14581114 0  
0.41838804 -0.3182741 0  
0.3182741 0.41838804 0  
-0.41838804 0.3182741 0  
-0.3182741 -0.41838804 0  
0.32118136 -0.41712493 0  
0.41712493 0.32118136 0  
-0.32118136 0.41712493 0  
-0.41712493 -0.32118136 0  
-0.19707234 -0.014843048 0  
0.018050108 -0.20183705 0  
0.19707234 0.014843048 0  
-0.014843048 0.19707234 0  
-0.10938372 -0.41847488 0  
0.41847488 -0.10938372 0  
0.10938372 0.41847488 0  
-0.41847488 0.10938372 0  
0.15773043 -0.4267032 0  
0.4267032 0.15773043 0  
-0.15773043 0.4267032 0  
-0.4267032 -0.15773043 0  
-0.3204562 -0.07174808 0  
0.07174808 -0.3204562 0  
0.3204562 0.07174808 0  
-0.07174808 0.3204562 0  
0.02801032 -0.07269879 0  
-0.31817523 0.069836795 0  
-0.069836795 -0.31817523 0  
0.31817523 -0.069836795 0  
0.069836795 0.31817523 0  
0.43106207 -0.17757268 0  
0.17757268 0.43106207 0  
-0.43106207 0.17757268 0  
-0.17757268 -0.43106207 0  
0.0703783 0.071201205 0  
-0.051593844 0.064346604 0  
0.099701226 -0.08333426 0  
0.2863281 -0.17248559 0  
0.17248559 0.2863281 0  
-0.2863281 0.17248559 0  
-0.17248559 -0.2863281 0  
-0.2341888 0.04979648 0  
-0.049194112 -0.231281 0  
0.23358595 -0.04946041 0  
0.04979648 0.2341888 0  
-0.009939441 -0.13691185 0  
-0.26560438 -0.17864102 0  
0.17864102 -0.26560438 0  
0.26560438 0.17864102 0  
-0.17864102 0.26560438 0  
0.013302229 -0.43510666 0  
0.43510666 0.013302229 0  
-0.013302229 0.43510666 0  
-0.43510666 -0.013302229 0  
0.09432827 0.114700764 0  
-0.11539384 0.093188405 0  
-0.3413634 -0.005100272 0  
0.005100272 -0.3413634 0  
0.3413634 0.005100272 0  
-0.005100272 0.3413634 0  
-0.19817708 -0.3508856 0  
0.3508856 -0.19817708 0  
0.19817708 0.3508856 0  
-0.3508856 0.19817708 0  
-0.34100306 -0.27216324 0  
0.27216324 -0.34100306 0  
0.34100306 0.27216324 0  
-0.27216324 0.34100306 0  
-0.20269383 -0.14403741 0  
0.14393912 -0.2028372 0  
0.2026342 0.14393856 0  
-0.14393856 0.2026342 0  
-0.1030633 -0.10524017 0  
-0.4394695 -0.104853734 0  
0.104853734 -0.4394695 0  
0.4394695 0.104853734 0  
-0.104853734 0.4394695 0  
-0.44156647 -0.44156647 0  
0.44156647 -0.44156647 0  
0.44156647 0.44156647 0  
-0.44156647 0.44156647 0  
-0.2683254 -0.44465622 0  
0.44465622 -0.2683254 0  
0.2683254 0.44465622 0  
-0.44465622 0.2683254 0  
0.2654342 -0.4435478 0  
0.4435478 0.2654342 0  
-0.2654342 0.4435478 0  
-0.4435478 -0.2654342 0  
-0.27373606 -0.34534052 0  
0.34534052 -0.27373606 0  
0.27373606 0.34534052 0  
-0.34534052 0.27373606 0  
-0.05307205 -0.4481981 0  
0.4481981 -0.05307205 0  
0.05307205 0.4481981 0  
-0.4481981 0.05307205 0  
-0.35614902 -0.19390328 0  
0.19390328 -0.35614902 0  
0.35614902 0.19390328 0  
-0.19390328 0.35614902 0  
-0.14022674 -0.012452113 0  
0.14171903 0.011271359 0  
-0.01125192 0.14089845 0  
-0.19556868 -0.06932378 0  
0.070511825 -0.19668652 0  
0.19556868 0.06932378 0  
-0.06932378 0.19556868 0  
-0.24951252 -0.039742906 0  
0.04037078 -0.2503529 0  
0.24951252 0.039742906 0  
-0.039742906 0.24951252 0  
0.44100407 -0.36164257 0  
0.36164257 0.44100407 0  
-0.44100407 0.36164257 0  
-0.36164257 -0.44100407 0  
-0.4451273 -0.36589316 0  
0.36589316 -0.4451273 0  
0.4451273 0.36589316 0  
-0.36589316 0.4451273 0  
0.1121834 -0.30242515 0  
0.30242515 0.1121834 0  
-0.1121834 0.30242515 0  
-0.30242515 -0.1121834 0  
-0.115146436 -0.19087775 0  
0.19190264 -0.11309679 0  
0.11520548 0.19263776 0  
-0.19263776 0.11520548 0  
-0.08287991 -0.37025127 0  
0.37025127 -0.08287991 0  
0.08287991 0.37025127 0  
-0.37025127 0.08287991 0  
0.23791528 -0.24381089 0  
0.24381089 0.23791528 0  
-0.23791528 0.24381089 0  
-0.24381089 -0.23791528 0  
-0.44626984 -0.21174923 0  
0.21174923 -0.44626984 0  
0.44626984 0.21174923 0  
-0.21174923 0.44626984 0  
0.35174853 -0.37705234 0  
0.37705234 0.35174853 0  
-0.35174853 0.37705234 0  
-0.37705234 -0.35174853 0  
-0.048605647 -0.023262763 0  
-0.1551113 -0.21381997 0  
0.21381997 -0.1551113 0  
0.1551113 0.21381997 0  
-0.21381997 0.1551113 0  
-0.29403278 -0.30027482 0  
0.30027482 -0.29403278 0  
0.29403278 0.30027482 0  
-0.30027482 0.29403278 0  
0.12173745 -0.390654 0  
0.390654 0.12173745 0  
-0.12173745 0.390654 0  
-0.390654 -0.12173745 0  
-0.12236246 -0.2979882 0  
0.2979882 -0.12236246 0  
0.12236246 0.2979882 0  
-0.2979882 0.12236246 0  
-0.0945969 -0.046371013 0  
0.035276897 -0.027358124 0  
-0.0076714605 0.051946 0  
-0.30809116 -0.17165439 0  
0.17165439 -0.30809116 0  
0.30809116 0.17165439 0  
-0.17165439 0.30809116 0  
-0.16592422 -0.10879113 0  
0.10700909 -0.1687818 0  
0.16864619 0.10664837 0  
-0.10664837 0.16864619 0  
-0.16784625 -0.38069874 0  
0.38069874 -0.16784625 0  
0.16784625 0.38069874 0  
-0.38069874 0.16784625 0  
-0.4563872 -0.05993889 0  
0.05993889 -0.4563872 0  
0.4563872 0.05993889 0  
-0.05993889 0.4563872 0  
0.31103167 -0.37412483 0  
0.37412483 0.31103167 0  
-0.31103167 0.37412483 0  
-0.37412483 -0.31103167 0  
-0.3909646 -0.012754724 0  
0.012754724 -0.3909646 0  
0.3909646 0.012754724 0  
-0.012754724 0.3909646 0  
0.44915667 -0.21679194 0  
0.21679194 0.44915667 0  
-0.44915667 0.21679194 0  
-0.21679194 -0.44915667 0  
0.045831423 0.12033131 0  
-0.12662303 0.045442794 0  
-0.3107799 -0.37355793 0  
0.37355793 -0.3107799 0  
0.3107799 0.37355793 0  
-0.37355793 0.3107799 0  
0.04152367 0.021693805 0  
-0.08040017 -0.2675595 0  
0.26794365 -0.08044455 0  
0.080500565 0.2680441 0  
-0.2680441 0.080500565 0  
-0.13753757 -0.45578164 0  
0.45578164 -0.13753757 0  
0.13753757 0.45578164 0  
-0.45578164 0.13753757 0  
-0.05507968 -0.12135967 0  
0.14172421 -0.09428923 0  
0.2571752 -0.19664502 0  
[...]
POINT_DATA 2173 
SCALARS T float 
LOOKUP_TABLE default 
6.366445343856746e-19 
-6.217714152725814e-18 
-8.758637812246158e-19 
7.646187522034552e-20 
1.4936699025157406e-17 
1.326285767900389e-17 
1.483953245347468e-17 
3.815770527531132e-17 
4.5678165658569995e-17 
2.352434442813608e-17 
5.0136045848412684e-17 
3.7007679967388504e-17 
5.767948789780764e-17 
3.936181381248881e-17 
-3.0886769008345024e-18 
4.290389552748139e-17 
1.9190328493661353e-17 
7.44919786430127e-17 
2.5780003817824844e-18 
3.1459512481982305e-17 
1.054956473931718e-17 
2.193228084123251e-17 
1.2773482456366622e-17 
-9.321213952063675e-18 
4.142671876228219e-17 
-1.0071009629266592e-16 
1.632754902182206e-16 
-2.344224381125106e-17 
-9.471001912758837e-17 
-3.114972404562075e-17 
1.0978911404034788e-16 
-1.1057896225894437e-16 
2.3781651486172074e-16 
-2.368366194859064e-16 
1.814794633292038e-16 
-3.9478105355521317e-16 
4.2953890301101295e-17 
2.44726242299891e-16 
6.278493314681484e-17 
-1.619117069305231e-17 
3.6404686398095074e-17 
5.799532800934431e-17 
1.3144655620498084e-16 
-1.3738322642893578e-16 
-9.225976893219074e-17 
-1.5463522549006624e-16 
9.505456334221038e-17 
1.5768396632133793e-16 
1.8413748188555232e-17 
-1.8445406602239812e-16 
-9.211611746363278e-16 
-3.0178147118978307e-16 
1.2129911192154379e-16 
2.5152327457013835e-16 
-3.631225864762581e-16 
4.5202650683424706e-18 
-1.4325269216869165e-15 
5.56906541974121e-16 
-3.134860276832511e-16 
-2.732245960512499e-16 
-2.4349228491000455e-16 
5.323606155745383e-16 
-4.880057779258563e-16 
3.9995174094759856e-16 
-4.336460376281877e-16 
4.613086469813495e-16 
-1.11007294739863e-15 
1.1796774882834585e-16 
-5.028687203735249e-16 
1.3302429763355053e-16 
-1.6157480912439538e-16 
4.194374129891685e-16 
-5.597090278986568e-16 
-6.124979422697965e-16 
-1.239514271903285e-15 
-2.9962498204903397e-16 
-3.4003453593841636e-16 
-1.0889650161275159e-17 
7.897546500979335e-18 
3.2255204632435007e-17 
1.6616391250585454e-17 
4.373626735830145e-18 
-4.075818145345161e-18 
2.613772787215479e-18 
-3.1276069044966394e-17 
1.6087238340787423e-17 
1.097105650158672e-17 
6.752883119980473e-17 
-1.2468638066881168e-16 
2.985318298984403e-16 
-4.455703370641821e-16 
2.7286668147754815e-16 
-3.096709900795652e-17 
2.5576374456494336e-17 
-3.0810825746511944e-17 
4.562332079254288e-17 
6.996176617479232e-18 
2.406795633677353e-18 
-1.5533069444353408e-18 
1.6168400432224242e-18 
6.13360371388823e-19 
-7.225186992164673e-19 
4.372480421014522e-19 
-1.1609387935875084e-19 
-9.363458330895863e-19 
-5.8660461590918584e-18 
4.574118806876896e-18 
-1.7066776840548237e-18 
5.063687566521748e-18 
-1.1844625898715475e-18 
1.318839143683394e-18 
2.0573406335315556e-18 
-4.563893366623861e-18 
2.1702669697578865e-18 
-9.031100021943525e-18 
1.3365192769771536e-18 
-2.7247825269637676e-18 
-8.874985773935317e-19 
-1.5270008859160968e-17 
2.8566551957641324e-19 
1.7839557751909683e-18 
-1.0567589068250915e-18 
-6.418180534235057e-19 
1.968005464215071e-17 
-1.4773502325699692e-18 
9.586352394377736e-18 
1.1309674344604327e-17 
9.047834525676735e-18 
2.8853348767698864e-19 
-1.1317393243332608e-17 
1.5565353525197616e-17 
-9.946509376356275e-18 
4.082221678001296e-18 
4.843286617676274e-18 
-2.408886137510579e-19 
1.1125902843801552e-17 
-8.37298459461491e-19 
-6.8706165570156606e-18 
3.878610363406907e-18 
8.697187462817859e-18 
-4.24845707962385e-18 
2.502083853929556e-18 
-1.5199840338940096e-18 
-4.931902565344259e-18 
-3.323862564226711e-17 
1.1312954812376937e-17 
9.054133066806443e-18 
-2.812334818443578e-18 
2.4320304493142774e-17 
-1.4344506391695505e-17 
4.1790570667853204e-17 
-1.0308894640731124e-17 
2.6164008481012627e-17 
-2.8111292455668843e-17 
-2.3842149627450614e-17 
-3.6856634576558237e-17 
-3.2087346589693845e-17 
-8.76128162083825e-19 
-1.1242596019604903e-17 
-1.3699506180248905e-17 
3.5981868500805563e-6 
-1.2674335150873216e-5 
-0.0006136617470720775 
0.3503556094806568 
-8.91734106588135e-7 
-6.319135892998007e-6 
-6.01744420845883e-5 
-0.0011176993991780038 
0.008156051679981572 
0.00013226416882088963 
-0.00016890758725492743 
1.3456524864427375e-6 
-1.3042982694213562e-6 
-2.976062331730724e-6 
-3.0196312102901195e-5 
0.024826125676769093 
2.9907089176047165e-5 
-7.130730577910858e-5 
0.000488886321539661 
0.022234033229311525 
4.923322795320342e-6 
0.00018258621911411587 
-0.004738268434005466 
3.1211892653159537e-6 
-3.023759463419905e-6 
6.796688425282788e-5 
-0.0009245611131847476 
0.21040834785865997 
1.7701038318147253e-7 
2.068540583695634e-5 
-0.001269417388166236 
4.976038285587074e-5 
-2.517780325556217e-6 
-0.00029595428044848065 
0.0006791498036831039 
-6.88090127382204e-6 
3.79986616735391e-5 
-9.028276950579905e-5 
-0.0008998943004198953 
-3.2622630164484287e-6 
-1.3702992645460108e-5 
1.173389112587846e-5 
-0.00010158156614790491 
0.014078066845990297 
-1.6877754915698205e-5 
-3.580198874478625e-6 
-0.0003434728133177132 
0.4529335514292711 
-2.7412968915538716e-6 
1.690794361808637e-5 
-4.4490604966705775e-5 
0.00015322822789015368 
6.216301764646586e-6 
0.00015059051717787594 
-0.0002050875906974914 
-2.3693238027007458e-6 
7.930194552295114e-6 
-0.0004506300652335418 
0.029640224927231645 
1.4387951938164709e-6 
-1.4512196822935441e-5 
2.0963836329603765e-5 
-0.0003589662155181381 
0.02783111069244329 
9.109189533947365e-7 
-1.96175339990209e-6 
1.9688416734653356e-5 
0.00010995042535717944 
0.0030576635054593857 
-3.6962244266678115e-5 
-2.2319855722077646e-6 
0.0009463799109971872 
0.37533215205663567 
0.0001480680002294793 
9.123249121118776e-5 
5.1510469166218414e-6 
-8.485933624758695e-7 
-0.0004177868538976286 
-0.0008327270840592268 
-4.68046533801216e-6 
-2.658605289789509e-6 
-1.8210586843556988e-5 
8.220051099851539e-5 
-0.0012053193525142893 
0.009683686348987492 
8.53929627834196e-5 
-8.83238032388776e-5 
-3.3813106844064164e-5 
-1.5721329687185584e-7 
0.0001241637722080209 
-0.001135693785922892 
4.2869337053271967e-7 
1.394866773404705e-6 
1.929624795446845e-5 
4.548191320875386e-5 
-0.0013856643709175998 
-4.08034125827484e-5 
0.00023832516948629878 
1.090410145561091e-6 
-0.00012990981341246178 
-0.00016591632608661268 
0.03385023783971112 
-0.00035866930676149364 
7.384536872560995e-5 
-6.519894344909087e-7 
3.3973957584448335e-5 
0.009941705217405093 
-9.382379135079323e-7 
-5.566179266286392e-5 
0.0010687582084578603 
0.1822543655005771 
-4.625262489177815e-6 
-1.4504079669521665e-5 
1.2280377728488856e-6 
9.066274091284396e-5 
-0.002731443843561081 
0.14568767075280162 
8.599250765859993e-5 
-3.070716199661841e-5 
-0.0002565708778649518 
0.05080963778549804 
-9.023796318521553e-8 
0.00010407665919679146 
0.00016705833759545288 
-1.0842733842101468e-5 
-2.7787473832384874e-6 
0.10882689593754616 
3.872199945868919e-6 
1.0279083229758617e-5 
-3.63084475561343e-6 
0.0012490368534220104 
0.0003913992095328803 
-5.228149019932314e-5 
0.00066707695863488 
0.008314998788490222 
3.0367592382075388e-6 
-3.9960316130621474e-5 
-9.027413130795428e-5 
-0.0004990261745417499 
1.578107998935213e-6 
1.3585853489980724e-5 
0.0004645106527214995 
0.22393337671072516 
-1.3161274324868673e-6 
-2.282255184451195e-5 
-9.687620922402301e-6 
-8.235364967115263e-5 
-0.00022146109224665343 
-4.3085815553959753e-7 
1.3243995835576724e-5 
-5.28702646968432e-5 
2.8961129782846734e-5 
2.6579671903554955e-6 
-2.729301456561717e-5 
0.0003479464630746601 
0.00029910818648873713 
-2.0140097139118577e-6 
-0.00012172164367944309 
-0.0007387303197250261 
-4.112410357937535e-6 
7.078373046316861e-6 
-3.593825356593371e-5 
-0.00016328168984211 
0.0015746524480931244 
3.742500883439408e-6 
5.6712904110799676e-5 
0.00020369452592987604 
-1.0421689909528331e-5 
3.8331427316741636e-6 
-2.640456881533286e-5 
-0.00033138628094510873 
0.0013356153391396884 
6.844115809894138e-8 
-5.9808672642384745e-5 
-0.0018552023616645607 
0.005164434803078932 
-6.034802230176884e-6 
-7.293776978322064e-5 
0.01559304325931524 
9.180027672904109e-5 
8.288163830152951e-6 
-6.23933845459009e-5 
0.009509976538985951 
0.001750895302254535 
-0.0001111734004381966 
5.051270276480355e-5 
2.511930416667221e-7 
3.452907927988801e-5 
1.8000519631327798e-5 
-0.0001435151101535822 
-0.00010819937554784307 
1.626734927480592e-6 
-0.00015606765597038356 
0.001099073771462275 
-6.453197541338568e-6 
-5.049345257130812e-6 
5.8576240426427e-5 
-0.0001077110281505785 
0.560432601767256 
-4.343757639224716e-6 
-0.00010125681223485291 
0.0010148359427866174 
0.0028584260434122775 
2.8761422165255138e-6 
0.0005507899850706843 
0.09787946311684909 
-2.415327879815118e-6 
-1.7742810310221937e-5 
1.024251707156276e-5 
-2.5048381085871923e-5 
1.9461920974347392e-5 
-2.4722589867317214e-6 
-0.0003689557337596348 
-7.758595063627991e-5 
1.6279256628218333e-6 
2.508348552675896e-5 
4.803192092069446e-6 
-2.7837176165893255e-5 
-0.000493169376948225 
0.6421534031153331 
-1.916800600946253e-6 
-3.382565949844578e-5 
-0.00027141625446537625 
0.0024024326830203837 
3.524043702680109e-6 
2.074722767986237e-5 
-0.0010066177663417136 
-3.6338248824959775e-8 
-1.9003014681768253e-5 
-5.1654858656258865e-5 
-0.0002989023747459923 
0.1479829653563828 
2.917733680795325e-6 
-7.850646618354634e-6 
0.0003502119233204439 
9.540064960461702e-5 
6.194307575257268e-6 
-0.0002957004716551203 
0.005904256943266623 
5.56203810019715e-7 
8.627654198267624e-6 
-5.1255107750972326e-5 
0.12583850156040163 
-9.532734775902243e-6 
4.185751565091963e-5 
-0.0005051973613187075 
0.002340170621706947 
2.6385608806510554e-6 
-1.009181719595757e-5 
-1.6837836894252125e-5 
0.00039472618205997525 
-6.153504276300133e-7 
-0.00020893180680628878 
-0.0007698682983613686 
-4.68756383123398e-6 
-1.1819410664200482e-5 
-1.4370647558222576e-6 
-0.00010888277154369863 
0.0014793056680665415 
-6.668367599748535e-5 
-0.00016038457500128263 
5.705050900473265e-5 
8.254256130605812e-6 
1.5703753826109385e-5 
0.03600380559989166 
7.918237737914166e-6 
2.1776977666042798e-5 
-0.0003014170687955747 
-8.80068187431496e-5 
1.692256493562943e-6 
0.000368063481000067 
-6.88814102114288e-5 
0.0008471398408212672 
0.18215338138080095 
-8.707344422732862e-6 
-1.5767770032466714e-6 
-0.0006875747263072496 
-2.930348472168434e-6 
-5.675305728690287e-6 
9.690580043109334e-5 
-2.329586351253012e-5 
-0.0004237082482839141 
0.25207920032540326 
2.7559822592517997e-6 
-7.097165199365625e-6 
-0.000565591558127121 
-9.58004117758426e-6 
1.6015527087652477e-5 
-0.0003498120994119825 
-0.00015077380107318954 
2.637033863752135e-6 
-0.0001425621862056397 
-4.592686261631862e-5 
-7.85582418198939e-6 
2.113350298342895e-5 
-2.1472043658835103e-5 
0.00015561082111318502 
5.55033649762594e-8 
-6.660861085520913e-6 
0.004272657054928545 
0.0002614812583573337 
-1.761078227207036e-5 
-0.0002013828541313889 
0.0051723860924871015 
-5.208787881467396e-6 
-8.148620344482967e-7 
6.809363446413629e-5 
-6.142186594415327e-6 
-4.313881539421834e-5 
0.0015348688326887957 
0.07029052138994649 
2.0489956651487926e-5 
-3.238772277738441e-6 
-0.00018736666433622333 
0.0026065145680267397 
0.028599721446813376 
6.372575386027897e-6 
6.394247683594602e-5 
-0.0004101824414743971 
8.72264911570897e-7 
-0.0003270900486827294 
0.00028947066122468374 
-0.0002135107815190536 
-0.0041382775433514716 
-2.5594954545963815e-6 
1.0465563014430413e-6 
3.0011601786602206e-6 
-0.00030127332166959945 
3.992846601295436e-5 
5.217689880825076e-6 
2.0493421520217126e-5 
9.081366177180377e-8 
-2.252799725059596e-5 
0.0009346875221476954 
0.0045712319748916945 
-5.4282592787162245e-5 
-3.31956458413782e-5 
3.112523202640262e-6 
-3.7987168992829193e-6 
4.163766539632441e-5 
0.0017274354153307915 
-5.476878394459259e-5 
-6.130932748521547e-6 
-6.2128051429861465e-6 
-0.0001355523932589086 
-0.0004674392492797894 
-4.59650651620288e-6 
-2.8444528330446413e-5 
-4.572675191731081e-6 
-0.00018796504027756498 
0.5253791611892565 
6.265410542234406e-6 
-0.00015074457996550403 
-3.717876041222296e-6 
-2.3438842319337164e-6 
-5.410777964423706e-5 
7.955391009344452e-5 
0.003016382415228836 
1.6478100114065844e-6 
-5.099041419711046e-5 
0.00035035230757227636 
-1.3522523814435396e-6 
-7.3031498459570175e-6 
2.0153017959804896e-6 
7.803279067439462e-5 
0.0007526010877778854 
1.7658633299161803e-7 
0.0001287675848360017 
2.9380168087714076e-5 
-7.1400371084570265e-6 
-2.7707866186431565e-6 
-3.1363289219779905e-5 
2.9022245577057266e-5 
-6.51901977749981e-6 
7.471590706925651e-6 
4.0019628863752375e-6 
-8.23741590379036e-5 
0.0012705637336235638 
0.035986504139915276 
2.1032716836330276e-5 
0.0010497533366580299 
0.0010748542486012254 
0.26121560048242726 
1.5884430137255997e-6 
-3.721771389564068e-6 
-0.00012038320797472173 
0.005690671328660955 
0.00022641891592224575 
1.8665768719803512e-6 
-8.799580631932467e-6 
3.0493237021883024e-5 
1.07452467835971e-6 
-4.752275206167072e-5 
-6.557401715875122e-6 
-0.0006516207014549777 
0.12055707687221714 
2.74432491789056e-6 
0.0003345973913097959 
5.669535242184506e-5 
8.47917466741716e-6 
3.177308817812737e-6 
0.0015855886680756098 
4.6119526980249704e-5 
0.000988687794722597 
0.07413872681345353 
-1.933941259236637e-5 
6.215214914390211e-5 
0.00014734669298625336 
-6.329508699844461e-7 
-4.555857523204141e-6 
0.0011939350499422072 
0.43005969249140924 
-2.288695936830213e-6 
1.6200924249568736e-5 
0.03588667551543629 
-1.120002463888709e-5 
0.00020192965111513858 
0.009315723798836575 
-7.554426479889184e-7 
-4.0146298275829395e-6 
5.451293375127298e-6 
-4.849547029982602e-5 
0.0018195706793064173 
0.028699377052388692 
-2.7084693121262625e-5 
0.00010359351451127256 
0.0017319619734927148 
2.2785309517681323e-6 
4.2756901716845684e-5 
-0.0023404834435597007 
0.35635868347210964 
2.1345728132126402e-6 
-0.00035067993137805563 
0.003499252656805093 
-3.245006365346978e-6 
-5.175011724442848e-5 
-5.974014922822837e-5 
0.0008152057821679392 
0.0002493612418726383 
6.937264934929298e-6 
9.792842777375792e-6 
0.0006666838297174656 
0.049599726641535585 
1.6256726451083977e-6 
9.14964819354612e-6 
6.762732806452693e-6 
0.04908892176457535 
8.134849631048854e-7 
0.10953352134354023 
-5.774341599338401e-6 
-1.0814990323000056e-5 
0.0004172321612068835 
2.3718295513712508e-6 
6.6639594532219915e-6 
2.480756809170167e-6 
-5.541230077673805e-5 
4.387570249266321e-6 
-3.6149877382264296e-6 
1.7756796243135422e-6 
0.00040151373034592863 
0.03680650047759683 
-2.055137334112103e-6 
2.2165391000953496e-5 
0.0012030487145511018 
0.043863431512249196 
-8.177614379626131e-6 
0.00021047734434519253 
-0.00011664271360140332 
0.0003655689664907482 
-1.2682876400804232e-5 
-6.310485620034939e-7 
6.630263723545721e-5 
2.5818994519976174e-5 
-0.0004023378733780515 
-0.00028876919359501456 
6.141250171730974e-6 
0.00012398931459928016 
0.19878757472833905 
-2.9222614624933396e-6 
-1.852681529605754e-5 
-7.588822258387537e-5 
6.963199093147457e-5 
-3.165237526445751e-5 
7.6240399520107085e-6 
3.802877920121135e-5 
-4.027721254071948e-5 
-1.6624213761539565e-5 
0.00010747148385625396 
0.0003443239418682053 
9.795959108645271e-5 
0.6226078505780346 
0.6493390305067758 
0.6277663240475071 
-4.017903556120846e-6 
1.5569158881571548e-6 
7.135069306132625e-6 
-6.47919666912886e-5 
-3.6226510957384884e-5 
1.294262685922022e-5 
8.139408390934776e-5 
0.0012424950497760975 
0.0009171086876822427 
0.10904731404835456 
0.131580962591681 
0.19454977920095076 
-1.0015251405192208e-5 
-2.147910661034695e-6 
1.0700010450885392e-5 
1.371734130003174e-5 
1.260170679061294e-5 
-2.857387971599164e-7 
-2.702426439937969e-6 
0.0012130764260536054 
-0.0009355488638153552 
0.4933886835143501 
0.5166388845523712 
-1.3085776096761055e-5 
-6.531789925988709e-7 
-8.984725063516252e-5 
1.571701298510271e-5 
0.0018584355323329857 
0.00032460280426989857 
0.24163423084679653 
0.3021151531687621 
0.039756971825288076 
0.0703023512757325 
0.024267923244852142 
-2.6752535395023177e-5 
9.186816370652138e-6 
2.9549719941101544e-5 
2.645861911563803e-5 
-1.2344173902276142e-5 
2.0310090244527075e-5 
1.5803453040244734e-5 
-4.9298999751478206e-5 
-0.0004188067421942838 
-0.00024629626317351685 
0.0007680710556637665 
-0.0003452575401562127 
-0.00014852379157889934 
0.00030975416033011635 
6.931863341272881e-6 
-2.9114636583029595e-7 
1.7204213435292932e-6 
1.1262754227099229e-5 
2.0416192339020374e-5 
-7.130456361893624e-5 
-1.1913255883982705e-7 
2.550230054899915e-5 
-4.639831352623122e-6 
2.2622931820858374e-6 
8.054846775729448e-7 
1.4678674139610428e-5 
2.109833883737204e-5 
0.0001344088292449277 
4.789541041909228e-5 
-7.724543950313741e-6 
1.1471623523861253e-5 
1.1039056986918152e-5 
-8.235177537262083e-7 
-8.645143513237096e-7 
-6.377877466044224e-7 
-2.2390000175025824e-6 
0.00011315332948567619 
-4.768353218816147e-6 
-4.064389741061038e-5 
-0.0028514022258332443 
0.0008550307135571104 
-8.647420020113651e-5 
0.018544722524336442 
0.005564710771734378 
0.002835860232471546 
-0.00014262428832330167 
0.0003462427654462576 
-0.00042176589346760426 
-0.00019150928106002397 
-3.836610382644757e-5 
0.00013880155622331944 
-4.682637946986896e-6 
6.634218547786193e-6 
8.299405790694344e-7 
3.495983432002206e-5 
1.8810117018687334e-5 
1.9838507645419792e-5 
0.00019353983383767643 
-3.829937958534257e-5 
-6.277746729612283e-5 
0.0005425403368908492 
-0.00021278067031926874 
0.000351934535167003 
-3.715205588419381e-7 
1.0240378895036212e-6 
2.2510004877035035e-6 
-1.1946025780530412e-5 
-8.866364911629566e-6 
4.6857747586351576e-7 
2.3235847412556725e-5 
0.00010512321267346833 
0.00015524490531874187 
7.061497749511825e-6 
6.974107874388035e-5 
0.0002436167179061608 
-1.1060824370818262e-6 
-1.9159833370164148e-5 
-0.00011772924633880589 
-0.00011667617434025304 
-0.00024676217984240993 
-0.00021769145954187818 
2.886164240992045e-7 
-9.525425066738268e-7 
6.798153518974444e-6 
1.3952832059894443e-6 
2.1839201166360617e-5 
2.3787426304058865e-5 
3.040826382351547e-6 
1.0599710322619903e-5 
-1.308415656701125e-6 
-0.00010997667229540891 
0.00016872890761282554 
0.00024118091860944835 
0.00011860380483010672 
-3.1984174834974677e-6 
6.931056757080877e-6 
4.785423376483681e-6 
7.641548281069463e-6 
-0.00011180410629493218 
-2.0555302287341702e-5 
5.3086915573553374e-5 
-1.1457962717951364e-5 
-6.070043523513832e-6 
3.7784417577332903e-6 
4.804881866288824e-6 
-5.795901324317413e-6 
-8.879857951686035e-6 
0.00010391338930929263 
0.000261641912117408 
-0.0024569592042231856 
0.014284603105962832 
0.0019566395298567327 
-2.6871339024597906e-5 
-5.443675853521187e-6 
2.659301946945344e-5 
3.922348412994445e-5 
-0.00013145570101431902 
0.0001939742336685148 
-0.0008687926802198822 
-0.0001866455109058818 
0.0013673886151912788 
1.5703939878928358e-6 
-2.120374096480842e-6 
1.5634590364093359e-6 
0.010446312525857013 
0.004402685460153354 
4.112474988458098e-5 
3.177782561317761e-5 
-0.0006128137399936522 
0.00010145010048922359 
-2.1024374635753413e-5 
-0.0001772380003899398 
-8.152762079374677e-6 
5.575203302575245e-6 
-0.00028145049781658996 
0.00024359921766274113 
-5.499072771108996e-5 
-0.0004114594636347315 
0.0003455192994853984 
0.0010279114809300452 
-1.2476616866775343e-6 
1.2451517571629297e-6 
1.4118984596623635e-6 
-9.827228619402753e-6 
1.199454262275718e-5 
8.41690494633778e-6 
0.0001200626603633535 
3.428076165928182e-5 
-0.00036656671468498635 
0.00027926429269567086 
4.389652111305069e-5 
0.0003303881562322406 
-3.3801948570056155e-6 
3.036867481356987e-6 
1.3299421635652726e-6 
2.0795239789798414e-7 
-1.4760777204253872e-5 
1.45441353780892e-5 
-1.089159613029172e-5 
8.235658088152899e-6 
-0.00026670159065419054 
0.00037397189670714453 
-0.0002256661845098895 
0.0007391406774862062 
-7.525996233530553e-8 
1.1764288157434149e-6 
-1.3850371073329237e-5 
-7.606605666473214e-5 
0.00010088324606886222 
3.599282601522614e-5 
0.0003463706476650294 
-9.64777717323027e-5 
0.0004211760623542911 
-8.972317869570333e-5 
4.0223289832078925e-10 
-4.052478611109803e-7 