# vtk DataFile Version 3.0 
Unstructured Grid 
ASCII 
DATASET UNSTRUCTURED_GRID
POINTS 2173 float 
-0.5 -0.5 0  
0.5 -0.5 0  
0.5 0.5 0  
-0.5 0.5 0  
-0.475 -0.5 0  
-0.45 -0.5 0  
-0.425 -0.5 0  
-0.4 -0.5 0  
-0.375 -0.5 0  
-0.35 -0.5 0  
-0.325 -0.5 0  
-0.3 -0.5 0  
-0.275 -0.5 0  
-0.25 -0.5 0  
-0.225 -0.5 0  
-0.2 -0.5 0  
-0.175 -0.5 0  
-0.15 -0.5 0  
-0.125 -0.5 0  
-0.1 -0.5 0  
-0.075 -0.5 0  
-0.05 -0.5 0  
-0.025 -0.5 0  
-1.3761214e-12 -0.5 0  
0.025 -0.5 0  
0.05 -0.5 0  
0.075 -0.5 0  
0.1 -0.5 0  
0.125 -0.5 0  
0.15 -0.5 0  
0.175 -0.5 0  
0.2 -0.5 0  
0.225 -0.5 0  
0.25 -0.5 0  
0.275 -0.5 0  
0.3 -0.5 0  
0.325 -0.5 0  
0.35 -0.5 0  
0.375 -0.5 0  
0.4 -0.5 0  
0.425 -0.5 0  
0.45 -0.5 0  
0.475 -0.5 0  
0.5 -0.475 0  
0.5 -0.45 0  
0.5 -0.425 0  
0.5 -0.4 0  
0.5 -0.375 0  
0.5 -0.35 0  
0.5 -0.325 0  
0.5 -0.3 0  
0.5 -0.275 0  
0.5 -0.25 0  
0.5 -0.225 0  
0.5 -0.2 0  
0.5 -0.175 0  
0.5 -0.15 0  
0.5 -0.125 0  
0.5 -0.1 0  
0.5 -0.075 0  
0.5 -0.05 0  
0.5 -0.025 0  
0.5 -1.3761214e-12 0  
0.5 0.025 0  
0.5 0.05 0  
0.5 0.075 0  
0.5 0.1 0  
0.5 0.125 0  
0.5 0.15 0  
0.5 0.175 0  
0.5 0.2 0  
0.5 0.225 0  
0.5 0.25 0  
0.5 0.275 0  
0.5 0.3 0  
0.5 0.325 0  
0.5 0.35 0  
0.5 0.375 0  
0.5 0.4 0  
0.5 0.425 0  
0.5 0.45 0  
0.5 0.475 0  
0.475 0.5 0  
0.45 0.5 0  
0.425 0.5 0  
0.4 0.5 0  
0.375 0.5 0  
0.35 0.5 0  
0.325 0.5 0  
0.3 0.5 0  
0.275 0.5 0  
0.25 0.5 0  
0.225 0.5 0  
0.2 0.5 0  
0.175 0.5 0  
0.15 0.5 0  
0.125 0.5 0  
0.1 0.5 0  
0.075 0.5 0  
0.05 0.5 0  
0.025 0.5 0  
1.3761214e-12 0.5 0  
-0.025 0.5 0  
-0.05 0.5 0  
-0.075 0.5 0  
-0.1 0.5 0  
-0.125 0.5 0  
-0.15 0.5 0  
-0.175 0.5 0  
-0.2 0.5 0  
-0.225 0.5 0  
-0.25 0.5 0  
-0.275 0.5 0  
-0.3 0.5 0  
-0.325 0.5 0  
-0.35 0.5 0  
-0.375 0.5 0  
-0.4 0.5 0  
-0.425 0.5 0  
-0.45 0.5 0  
-0.475 0.5 0  
-0.5 0.475 0  
-0.5 0.45 0  
-0.5 0.425 0  
-0.5 0.4 0  
-0.5 0.375 0  
-0.5 0.35 0  
-0.5 0.325 0  
-0.5 0.3 0  
-0.5 0.275 0  
-0.5 0.25 0  
-0.5 0.225 0  
-0.5 0.2 0  
-0.5 0.175 0  
-0.5 0.15 0  
-0.5 0.125 0  
-0.5 0.1 0  
-0.5 0.075 0  
-0.5 0.05 0  
-0.5 0.025 0  
-0.5 1.3761214e-12 0  
-0.5 -0.025 0  
-0.5 -0.05 0  
-0.5 -0.075 0  
-0.5 -0.1 0  
-0.5 -0.125 0  
-0.5 -0.15 0  
-0.5 -0.175 0  
-0.5 -0.2 0  
-0.5 -0.225 0  
-0.5 -0.25 0  
-0.5 -0.275 0  
-0.5 -0.3 0  
-0.5 -0.325 0  
-0.5 -0.35 0  
-0.5 -0.375 0  
-0.5 -0.4 0  
-0.5 -0.425 0  
-0.5 -0.45 0  
-0.5 -0.475 0  
-0.002115384 -0.00023065208 0  
-0.20714286 -0.20714286 0  
0.20714286 -0.20714286 0  
0.20714286 0.20714286 0  
-0.20714286 0.20714286 0  
-0.28155318 -0.0017231192 0  
0.0017231192 -0.28155318 0  
0.28155318 0.0017231192 0  
-0.0017231192 0.28155318 0  
0.3319978 -0.33098683 0  
0.33098683 0.3319978 0  
-0.3319978 0.33098683 0  
-0.33098683 -0.3319978 0  
-0.14015679 -0.06698606 0  
0.06698606 -0.14015679 0  
0.14015679 0.06698606 0  
-0.06698606 0.14015679 0  
-0.1387125 -0.34573975 0  
0.34573975 -0.1387125 0  
0.1387125 0.34573975 0  
-0.34573975 0.1387125 0  
0.14046866 -0.34602854 0  
0.34602854 0.14046866 0  
-0.14046866 0.34602854 0  
-0.34602854 -0.14046866 0  
-0.05869875 -0.16617337 0  
0.18217777 -0.061504476 0  
0.062312964 0.18362015 0  
-0.18362015 0.062312964 0  
-0.034321424 -0.38563195 0  
0.38563195 -0.034321424 0  
0.034321424 0.38563195 0  
-0.38563195 0.034321424 0  
0.39586002 -0.2428538 0  
0.2428538 0.39586002 0  
-0.39586002 0.2428538 0  
-0.2428538 -0.39586002 0  
0.23688246 -0.38952246 0  
0.38952246 0.23688246 0  
-0.23688246 0.38952246 0  
-0.38952246 -0.23688246 0  
-0.24287231 -0.09948847 0  
0.09948847 -0.24287231 0  
0.24287231 0.09948847 0  
-0.09948847 0.24287231 0  
-0.11560815 -0.24300627 0  
0.24300627 -0.11560815 0  
0.11560815 0.24300627 0  
-0.24300627 0.11560815 0  
-0.40192315 -0.4008276 0  
0.4008276 -0.40192315 0  
0.40192315 0.4008276 0  
-0.4008276 0.40192315 0  
0.06409326 -0.40289903 0  
0.40289903 0.06409326 0  
-0.06409326 0.40289903 0  
-0.40289903 -0.06409326 0  
0.2962961 -0.23982804 0  
0.23982804 0.2962961 0  
-0.2962961 0.23982804 0  
-0.23982804 -0.2962961 0  
-0.28087237 -0.21196799 0  
0.21196799 -0.28087237 0  
0.28087237 0.21196799 0  
-0.21196799 0.28087237 0  
-0.0901279 0.007867504 0  
-0.05002927 -0.07494272 0  
0.0873353 -0.009871756 0  
0.0071518295 0.09216282 0  
-0.14120433 -0.1484696 0  
-0.14581114 0.13960092 0  
0.1458264 -0.14505939 0  
0.13960092 0.14581114 0  
0.41838804 -0.3182741 0  
0.3182741 0.41838804 0  
-0.41838804 0.3182741 0  
-0.3182741 -0.41838804 0  
0.32118136 -0.41712493 0  
0.41712493 0.32118136 0  
-0.32118136 0.41712493 0  
-0.41712493 -0.32118136 0  
-0.19707234 -0.014843048 0  
0.018050108 -0.20183705 0  
0.19707234 0.014843048 0  
-0.014843048 0.19707234 0  
-0.10938372 -0.41847488 0  
0.41847488 -0.10938372 0  
0.10938372 0.41847488 0  
-0.41847488 0.10938372 0  
0.15773043 -0.4267032 0  
0.4267032 0.15773043 0  
-0.15773043 0.4267032 0  
-0.4267032 -0.15773043 0  
-0.3204562 -0.07174808 0  
0.07174808 -0.3204562 0  
0.3204562 0.07174808 0  
-0.07174808 0.3204562 0  
0.02801032 -0.07269879 0  
-0.31817523 0.069836795 0  
-0.069836795 -0.31817523 0  
0.31817523 -0.069836795 0  
0.069836795 0.31817523 0  
0.43106207 -0.17757268 0  
0.17757268 0.43106207 0  
-0.43106207 0.17757268 0  
-0.17757268 -0.43106207 0  
0.0703783 0.071201205 0  
-0.051593844 0.064346604 0  
0.099701226 -0.08333426 0  
0.2863281 -0.17248559 0  
0.17248559 0.2863281 0  
-0.2863281 0.17248559 0  
-0.17248559 -0.2863281 0  
-0.2341888 0.04979648 0  
-0.049194112 -0.231281 0  
0.23358595 -0.04946041 0  
0.04979648 0.2341888 0  
-0.009939441 -0.13691185 0  
-0.26560438 -0.17864102 0  
0.17864102 -0.26560438 0  
0.26560438 0.17864102 0  
-0.17864102 0.26560438 0  
0.013302229 -0.43510666 0  
0.43510666 0.013302229 0  
-0.013302229 0.43510666 0  
-0.43510666 -0.013302229 0  
0.09432827 0.114700764 0  
-0.11539384 0.093188405 0  
-0.3413634 -0.005100272 0  
0.005100272 -0.3413634 0  
0.3413634 0.005100272 0  
-0.005100272 0.3413634 0  
-0.19817708 -0.3508856 0  
0.3508856 -0.19817708 0  
0.19817708 0.3508856 0  
-0.3508856 0.19817708 0  
-0.34100306 -0.27216324 0  
0.27216324 -0.34100306 0  
0.34100306 0.27216324 0  
-0.27216324 0.34100306 0  
-0.20269383 -0.14403741 0  
0.14393912 -0.2028372 0  
0.2026342 0.14393856 0  
-0.14393856 0.2026342 0  
-0.1030633 -0.10524017 0  
-0.4394695 -0.104853734 0  
0.104853734 -0.4394695 0  
0.4394695 0.104853734 0  
-0.104853734 0.4394695 0  
-0.44156647 -0.44156647 0  
0.44156647 -0.44156647 0  
0.44156647 0.44156647 0  
-0.44156647 0.44156647 0  
-0.2683254 -0.44465622 0  
0.44465622 -0.2683254 0  
0.2683254 0.44465622 0  
-0.44465622 0.2683254 0  
0.2654342 -0.4435478 0  
0.4435478 0.2654342 0  
-0.2654342 0.4435478 0  
-0.4435478 -0.2654342 0  
-0.27373606 -0.34534052 0  
0.34534052 -0.27373606 0  
0.27373606 0.34534052 0  
-0.34534052 0.27373606 0  
-0.05307205 -0.4481981 0  
0.4481981 -0.05307205 0  
0.05307205 0.4481981 0  
-0.4481981 0.05307205 0  
-0.35614902 -0.19390328 0  
0.19390328 -0.35614902 0  
0.35614902 0.19390328 0  
-0.19390328 0.35614902 0  
-0.14022674 -0.012452113 0  
0.14171903 0.011271359 0  
-0.01125192 0.14089845 0  
-0.19556868 -0.06932378 0  
0.070511825 -0.19668652 0  
0.19556868 0.06932378 0  
-0.06932378 0.19556868 0  
-0.24951252 -0.039742906 0  
0.04037078 -0.2503529 0  
0.24951252 0.039742906 0  
-0.039742906 0.24951252 0  
0.44100407 -0.36164257 0  
0.36164257 0.44100407 0  
-0.44100407 0.36164257 0  
-0.36164257 -0.44100407 0  
-0.4451273 -0.36589316 0  
0.36589316 -0.4451273 0  
0.4451273 0.36589316 0  
-0.36589316 0.4451273 0  
0.1121834 -0.30242515 0  
0.30242515 0.1121834 0  
-0.1121834 0.30242515 0  
-0.30242515 -0.1121834 0  
-0.115146436 -0.19087775 0  
0.19190264 -0.11309679 0  
0.11520548 0.19263776 0  
-0.19263776 0.11520548 0  
-0.08287991 -0.37025127 0  
0.37025127 -0.08287991 0  
0.08287991 0.37025127 0  
-0.37025127 0.08287991 0  
0.23791528 -0.24381089 0  
0.24381089 0.23791528 0  
-0.23791528 0.24381089 0  
-0.24381089 -0.23791528 0  
-0.44626984 -0.21174923 0  
0.21174923 -0.44626984 0  
0.44626984 0.21174923 0  
-0.21174923 0.44626984 0  
0.35174853 -0.37705234 0  
0.37705234 0.35174853 0  
-0.35174853 0.37705234 0  
-0.37705234 -0.35174853 0  
-0.048605647 -0.023262763 0  
-0.1551113 -0.21381997 0  
0.21381997 -0.1551113 0  
0.1551113 0.21381997 0  
-0.21381997 0.1551113 0  
-0.29403278 -0.30027482 0  
0.30027482 -0.29403278 0  
0.29403278 0.30027482 0  
-0.30027482 0.29403278 0  
0.12173745 -0.390654 0  
0.390654 0.12173745 0  
-0.12173745 0.390654 0  
-0.390654 -0.12173745 0  
-0.12236246 -0.2979882 0  
0.2979882 -0.12236246 0  
0.12236246 0.2979882 0  
-0.2979882 0.12236246 0  
-0.0945969 -0.046371013 0  
0.035276897 -0.027358124 0  
-0.0076714605 0.051946 0  
-0.30809116 -0.17165439 0  
0.17165439 -0.30809116 0  
0.30809116 0.17165439 0  
-0.17165439 0.30809116 0  
-0.16592422 -0.10879113 0  
0.10700909 -0.1687818 0  
0.16864619 0.10664837 0  
-0.10664837 0.16864619 0  
-0.16784625 -0.38069874 0  
0.38069874 -0.16784625 0  
0.16784625 0.38069874 0  
-0.38069874 0.16784625 0  
-0.4563872 -0.05993889 0  
0.05993889 -0.4563872 0  
0.4563872 0.05993889 0  
-0.05993889 0.4563872 0  
0.31103167 -0.37412483 0  
0.37412483 0.31103167 0  
-0.31103167 0.37412483 0  
-0.37412483 -0.31103167 0  
-0.3909646 -0.012754724 0  
0.012754724 -0.3909646 0  
0.3909646 0.012754724 0  
-0.012754724 0.3909646 0  
0.44915667 -0.21679194 0  
0.21679194 0.44915667 0  
-0.44915667 0.21679194 0  
-0.21679194 -0.44915667 0  
0.045831423 0.12033131 0  
-0.12662303 0.045442794 0  
-0.3107799 -0.37355793 0  
0.37355793 -0.3107799 0  
0.3107799 0.37355793 0  
-0.37355793 0.3107799 0  
0.04152367 0.021693805 0  
-0.08040017 -0.2675595 0  
0.26794365 -0.08044455 0  
0.080500565 0.2680441 0  
-0.2680441 0.080500565 0  
-0.13753757 -0.45578164 0  
0.45578164 -0.13753757 0  
0.13753757 0.45578164 0  
-0.45578164 0.13753757 0  
-0.05507968 -0.12135967 0  
0.14172421 -0.09428923 0  
0.2571752 -0.19664502 0  
[...]
POINT_DATA 2173 
SCALARS T float 
LOOKUP_TABLE default 
-1.0436419917604768e-18 
-8.815958108938826e-18 
-3.3001878430625035e-20 
-4.427832542975461e-19 
-3.714370660890825e-17 
2.2543001289721908e-17 
1.2030126411452732e-16 
8.185818008598276e-17 
3.971271388311507e-17 
-1.478757664898654e-17 
-1.0111970439374284e-16 
1.7119274443066688e-16 
2.8314742918614236e-16 
-1.1559637708813851e-16 
4.1451019878465783e-16 
-1.8390467370026147e-16 
-1.516801461067656e-17 
-2.851751490776103e-17 
-3.9339085551798797e-16 
3.6793162847934675e-16 
-2.36746464239877e-16 
2.1720041149993266e-18 
1.2567562331959293e-16 
-1.503925013316269e-16 
2.6525940098425855e-16 
-5.035113747375867e-16 
6.199130962297996e-16 
1.7712417129489146e-16 
-1.589880467859381e-16 
1.3639847221323857e-16 
-4.376613920119319e-16 
3.555117233212167e-16 
-6.45661174640396e-16 
2.1697060618975279e-16 
3.337413336288491e-16 
-1.086061611373533e-15 
1.55317582340136e-16 
-1.2889024803110624e-16 
9.519815774246e-17 
1.172291465934885e-16 
3.346222189523328e-16 
1.368215713951584e-16 
1.0132592953564618e-16 
-8.58584284985373e-17 
8.358962813410682e-17 
-2.7097074982444636e-16 
2.943163893553351e-16 
-1.73914006147481e-17 
-4.677462523586695e-16 
-6.646785465780036e-16 
-1.555762625117476e-15 
1.1876957691211483e-16 
-8.282834376531927e-16 
5.643068281859165e-16 
1.1609678813614733e-16 
-2.7681087717931966e-16 
-2.0023907392502883e-16 
3.519894574464553e-17 
-4.571882165291118e-16 
3.614091143194118e-16 
-6.894640253877293e-16 
5.265497605692664e-16 
-7.602374287769564e-16 
6.656216706383369e-16 
-5.719219542162017e-16 
4.0601731810549845e-16 
-5.329881520804348e-16 
-7.047488014162586e-17 
-1.3002610189620012e-16 
-4.428469531276085e-17 
-3.088618467569247e-17 
-1.6260521015317655e-17 
1.7669869420595736e-17 
1.8669317653771923e-17 
1.4053062609547982e-17 
3.679333908894287e-18 
1.9516406198841504e-18 
8.104191051363314e-19 
1.879981735322828e-18 
-2.209196191326597e-18 
8.074920536949299e-19 
1.0560991666603593e-18 
-1.0196186919190796e-18 
-4.58844143056289e-19 
2.408707431281576e-18 
-1.578930257251366e-18 
-1.5610265172936853e-18 
-1.9647345415202244e-18 
-1.1669555994983914e-18 
-3.230797668741826e-18 
-3.0318062936614573e-18 
-2.796650546325689e-18 
-1.1795511439215459e-18 
-1.1252237327803085e-18 
-2.908407248929222e-18 
-1.1328252444948044e-18 
-4.357575365565786e-18 
1.0033034835612264e-18 
-3.748186338091575e-18 
1.478126638086796e-20 
-7.995601539298781e-19 
2.733900082775835e-18 
-4.367086308487824e-18 
6.2824281042516156e-18 
-5.0305648560645496e-18 
-1.19791347811222e-18 
-5.7103737553617475e-18 
-3.2649998089955033e-18 
4.501930538918028e-18 
-1.1925911422299925e-17 
1.3491363159686472e-17 
-1.431868740679132e-17 
1.1519562883176074e-17 
8.431289022187876e-18 
-5.5555610477953055e-18 
-1.644335360234412e-17 
-1.573379796596585e-17 
-4.0511800470179174e-18 
-2.031132911950616e-17 
-4.788398533449636e-18 
5.847423207954092e-18 
-6.071231051683232e-18 
9.383305357869263e-18 
1.8748379812505917e-17 
1.384708311490863e-17 
1.6828517302669347e-17 
2.014722500381753e-17 
1.1805972000289529e-17 
1.1134473180877547e-17 
4.609081956040083e-17 
-5.779250418498302e-17 
5.2768484651265444e-17 
-1.0621013061682739e-17 
-3.3721333759795165e-17 
3.947131193983676e-17 
-7.959002006870425e-17 
7.946304678357771e-17 
-4.2752809301770305e-17 
4.32357457051571e-17 
-1.0218606848157663e-17 
6.2285585200803414e-18 
9.146105920384328e-18 
-3.293540488479587e-17 
5.311656889575424e-17 
-2.912591378459453e-17 
-1.6970172012408693e-17 
7.680201838796383e-18 
-6.588612264206947e-17 
3.899684256810231e-17 
-4.521873430762151e-17 
-1.142186316889798e-16 
1.471918645131621e-16 
6.341772898490964e-18 
5.1513349365903496e-17 
-1.9199380688130442e-16 
-7.304922179869685e-17 
4.163292247009861e-17 
-5.385826440552659e-17 
3.582287809886867e-17 
4.331912133468991e-17 
1.7665243987009578e-6 
-8.028168728012058e-5 
0.0002455731977924425 
0.016451321064970655 
-1.5712340891847507e-5 
2.0187984503372555e-5 
-5.4064660141820856e-5 
0.28755993374475725 
-2.1624926990662345e-6 
-7.182267693448804e-5 
4.5551248859999785e-6 
-4.0030719626873134e-6 
-5.233359471953045e-5 
-0.00016162086964541158 
-0.0005646249160265166 
0.11022448839343305 
7.98653668969779e-6 
-3.71072337839815e-5 
0.001320464908356248 
3.08699975425102e-6 
-4.9074365329027404e-5 
0.0002006174001368302 
0.031261668930581125 
-3.07871135720529e-6 
-5.942104655106402e-5 
0.00015847613441876136 
0.019260001213521238 
9.59769416467366e-6 
-5.9517635269619894e-5 
0.00022394982348847132 
0.0034325197665690177 
-3.543128641856005e-6 
6.6949437665957e-5 
0.0005223621882919583 
1.0306263439722537e-6 
5.6964311335258495e-6 
5.863500759346085e-5 
0.0007023124124059001 
3.437411624325696e-5 
-3.116227950540197e-6 
7.176149713316141e-5 
4.4001484215370045e-5 
-0.0002301327665852785 
0.5608028962671209 
-3.279368249843921e-7 
0.0002069876772986742 
0.004140210352570545 
2.2637433162562195e-5 
-5.609932337325974e-6 
-9.9992215464001e-5 
0.0002519013477862893 
3.581656103746873e-7 
-9.013878565946948e-6 
0.000446132337299454 
0.0054945288687665884 
1.589181419463919e-6 
-1.6842110772956938e-5 
0.00167553900481732 
-4.48130871729922e-5 
-7.3178890963454904e-6 
-0.0001090974922136863 
-0.00016270206074487352 
0.0011933239278278315 
0.011607571607731335 
6.647668517368453e-6 
-8.4012004409176e-5 
0.00011206644232076235 
0.0030699510925430197 
2.820168474795927e-6 
-5.4619782413974416e-5 
-5.607213576480505e-6 
0.0008011912286873138 
0.03540178724080502 
0.0012873694630182767 
1.4210481810375509e-6 
-4.908131122780464e-6 
-5.337734841568714e-5 
-0.0009592295619843736 
1.2072687656346071e-5 
5.368527151549383e-6 
4.832031370267706e-5 
2.6750522550486754e-5 
-0.00013001221090966383 
0.32971737669180967 
4.298314830854871e-6 
0.00022732948198481582 
0.0008068654394687868 
-2.289292914667153e-6 
2.677754720407724e-5 
0.00044319705338675356 
-0.00015936888174301767 
2.6822275914992727e-6 
-6.79793674757479e-5 
-3.09147063351328e-5 
7.804698917355519e-5 
0.22764218750663462 
-2.653293292133977e-6 
-0.0005444369914386271 
-1.379205090009421e-5 
0.00011835471011851979 
0.009316038933529211 
1.5172693076753167e-6 
0.00048260225310637716 
1.5921747123100712e-6 
1.9109446251343166e-5 
0.00023849799285196815 
0.003238971533679828 
4.375383822986571e-6 
0.002158270759571069 
0.0004877428993722693 
-3.108729899378196e-5 
-6.096585772798379e-6 
9.905159788186122e-5 
-3.816840638564248e-5 
-0.00017925977632334518 
0.06753403424484059 
-6.4800002725626644e-6 
0.0009076443787499478 
-0.00020137550326186643 
0.0011103258858495076 
0.06950131040017246 
1.0463948734408478e-6 
0.0003434627376318351 
0.001012943883903319 
-2.4420744140475186e-6 
4.183212144153642e-5 
0.008323434768965923 
-2.8849123086797463e-5 
-1.673958354158719e-5 
6.080872592930353e-6 
0.06247110966637024 
1.8242549414985206e-6 
-9.166481052535839e-5 
-8.808930077722267e-5 
4.209345766745248e-6 
-3.058950129721715e-5 
7.111305265742993e-5 
0.002119469725430895 
-2.8328494067512848e-5 
3.867245027112698e-6 
2.8375710990987922e-5 
0.0011052417128811541 
0.18960428705577756 
1.3104011760125177e-6 
1.7637667440436037e-5 
-7.410869409319066e-6 
-0.00026771085895989214 
-7.347667246466e-5 
4.478655892775692e-6 
3.982492134396667e-6 
0.0001365898116448934 
-1.1981530854579764e-7 
1.5112499325111824e-6 
8.395961021537777e-5 
0.0005739198688467574 
1.8271839594995985e-6 
1.0333147488144403e-5 
0.00026390694488414397 
3.1842366658424506e-5 
-2.8879397264363394e-8 
9.882240163987262e-5 
-9.278748628613829e-5 
0.0012837420854547958 
3.1643229032478483e-8 
-1.0131272682317042e-5 
0.00018444818837038852 
-0.00024251136721777447 
-3.2967384320080916e-8 
-8.370476874686086e-6 
-6.363344923352849e-5 
-0.0004989953383061992 
0.0022524723360516953 
5.179355880536862e-6 
6.606455090152693e-5 
0.06907920299168852 
2.0737706168501913e-7 
9.296909056695065e-6 
6.466576280177422e-5 
0.47729801747617145 
2.5714263452221647e-7 
7.53133040000654e-6 
4.3384456951098504e-5 
0.6508409050511804 
4.007814848448799e-6 
-0.00019455363901987185 
6.301498646791323e-7 
5.439695694260811e-6 
-6.770172244049079e-5 
-5.7321873163798964e-5 
-0.0001074799225744161 
8.403307591360942e-7 
-1.1810621505613416e-6 
-0.0007941493519815794 
0.2409031992341059 
2.147573602951434e-6 
1.959024921270043e-5 
-2.1315253749494393e-5 
-0.0011669331462984306 
0.0017833949003843257 
-8.759605683875054e-6 
-2.332768119243963e-5 
0.0007427985504732796 
1.356364647097112e-6 
-1.2718228192142202e-5 
0.0007520332395425164 
0.003336996778327615 
-4.113358893654817e-6 
0.00018066517189602475 
1.7921917300815804e-5 
-0.00017244515478627214 
4.085759675774432e-5 
4.0408530100454545e-6 
6.802686835034443e-5 
2.71516524250473e-6 
-4.2429627943173335e-6 
-1.634454497707745e-5 
-7.497211537297388e-5 
8.773408671072103e-6 
0.0004738859273188525 
0.0040439654973802655 
3.139861106359801e-6 
-0.0001820177244086038 
-0.0004018431089564804 
-2.7309135391343694e-5 
-7.38663514276946e-6 
-0.0003984646762204926 
0.0056897238378593624 
-3.2423425864356845e-6 
9.773705088814203e-6 
-5.169045639641108e-5 
0.0017276279722969487 
-8.480385351145125e-6 
-4.592948515322319e-5 
0.0001276603652755847 
-2.1088154721848776e-5 
-1.1282480022339004e-6 
-0.00014054769886500187 
-0.0002403494402241623 
0.040194906503217664 
6.642658162051668e-6 
5.317805941565735e-6 
-6.951706134222967e-5 
0.2052488175853037 
5.176657488223081e-6 
5.8432092346844756e-5 
-0.00034234592104996343 
-8.796364038288874e-7 
1.606119127657621e-5 
2.569621683938639e-6 
7.460963991018597e-5 
6.495570138494938e-5 
2.4181001220322775e-6 
0.00019969184218037166 
-4.013833164334145e-6 
3.7257836046608494e-6 
1.5438022520258763e-5 
-2.0338424922001354e-5 
5.8232238778117254e-5 
0.0060873768470191955 
2.4359249572975665e-6 
-0.0007655954161062534 
1.5452247951482895e-6 
-3.16812539734749e-5 
-0.0001694311423393669 
0.00015096659885049457 
-0.0001467409720135053 
-2.1752864878307797e-5 
0.0005728589362228656 
1.8724762471503701e-6 
-1.1979699048771195e-5 
0.0002001645168975649 
-0.0003327067465661504 
0.01772230897787118 
-5.208995761387953e-6 
-3.423487727675033e-6 
-4.840302771214688e-5 
0.0005641740568298135 
1.7331707785859264e-6 
7.114454862185419e-6 
-0.0002079510695711107 
0.0019769827215803874 
0.00185182549057188 
0.00043785048216168486 
-3.7669525311784097e-6 
-7.360955327397283e-5 
0.009125648426438307 
-9.668876180973068e-5 
1.2038640794082813e-5 
0.000875830506985787 
7.832663711365367e-7 
5.278593930337577e-6 
-0.00011787393042765174 
1.329311116887068e-7 
1.284681804773591e-5 
0.00012058191383109546 
0.00037267598523869585 
-3.7366165451994256e-6 
-8.97729879064745e-6 
-4.984289522237152e-5 
0.015292608137103713 
3.0569695465576827e-6 
-3.0791570483411444e-5 
-0.00011679633241555034 
0.5191791608770621 
-6.634614068044875e-6 
4.095751167490967e-6 
0.0008803487292744697 
-0.0005389531552517216 
1.1251328030692705e-5 
0.13687138201094845 
-8.733052127750956e-7 
-7.953344487677882e-5 
2.642760358593421e-5 
-3.0363184051319477e-5 
0.3193471738735534 
-2.0529949875272634e-6 
-6.0370179820329565e-5 
-0.00027956511452451467 
9.804177673445575e-6 
1.246774177808162e-5 
0.0002310778750805995 
-0.0004882509958220877 
-4.612177255364745e-5 
0.0019138449762478855 
4.049489585613981e-7 
-2.186459980420337e-5 
7.908370157419006e-5 
0.0007310946580240943 
1.1011654349162691e-6 
-6.411704804665548e-6 
1.9831507410995012e-6 
-3.70567854541561e-5 
-6.800899198746713e-5 
0.017295602561064424 
-1.3778905101560955e-6 
3.5142429088169276e-5 
-0.00033903746483798737 
1.7424724894873371e-6 
2.284980498440507e-5 
0.0004512048582319403 
0.07655398351020093 
-2.9028873225861673e-6 
0.00011330538106188024 
-7.274251051657987e-5 
2.381797312992043e-5 
0.06498366672912709 
6.3461637192399e-7 
-0.00011733287944565745 
4.45504648900578e-6 
-0.0016604516913217616 
0.03901175974187808 
0.0005353250614958957 
-9.20597072411295e-6 
-1.7712725612309941e-6 
1.758558622949492e-6 
0.00016047715234370453 
0.0015360123485694617 
1.5713966353901218e-7 
-7.154287382171508e-6 
3.266602782909178e-5 
0.0003868828579484314 
-2.4051470447133686e-6 
-2.0180624626171238e-5 
1.979495412316821e-5 
6.130720070614832e-5 
0.0002623647130893965 
2.7249281459129637e-6 
0.0002637416969651491 
-1.1289666527715016e-6 
-5.188879803693543e-6 
-2.5348596501743126e-5 
0.00026201112600916397 
-1.1302302774332989e-6 
-8.702092091944082e-6 
1.0534761685973122e-5 
-0.00010058422198659855 
-0.00013042200406171943 
0.06821132054210227 
-9.710152106198767e-7 
0.00011999236613117646 
0.2532630399319227 
-1.9205155880502387e-6 
0.0027162379395567334 
2.1789929134803534e-5 
3.1310310142489303e-5 
6.66094747671192e-5 
0.32299598987667866 
-6.775345699105283e-7 
1.924301695829144e-5 
0.0001839506259362142 
0.0011029455215556577 
2.7321994291972615e-6 
-0.0001987155576559608 
-0.0002623657871564694 
0.0021992679040382353 
0.027927891732744865 
-2.434017503623929e-6 
-8.855240997032017e-5 
5.016863528581812e-7 
-2.907197822297203e-5 
-0.0002678851036381019 
0.0001134455103873543 
0.00021839902471145424 
0.001146968634754775 
0.38925697758698485 
1.927768684554792e-6 
0.0002577151142308936 
-0.00011539432924112156 
-3.491188162095651e-6 
2.8831685420645028e-5 
0.0013389445773766113 
0.00011321092032324849 
-3.1068084938927495e-5 
-0.0002891339657093838 
0.02435731031852899 
-1.0192113020739579e-5 
0.002161985559779933 
0.0003110413606032388 
1.719606880251162e-6 
6.747971861455303e-5 
-1.6175538049960943e-5 
-7.609680402472294e-5 
0.001444727761303265 
6.175994517477657e-7 
-3.7416524876608704e-5 
0.00031466485321936987 
0.000793211230917091 
-9.951260005298613e-6 
1.2235760643417055e-5 
0.010452801851581145 
-1.876448874811875e-6 
-4.1559689588578676e-5 
-0.0005508278227133008 
-1.4836429338173178e-7 
-3.2518663387102035e-6 
-0.00015024728902024762 
-0.00020686994042071695 
-8.212359106722815e-5 
1.3679010462434206e-8 
-3.4516527695854433e-5 
8.084924586642086e-7 
-0.0004708680326685186 
-5.457393835078264e-6 
-3.106737871324597e-6 
-7.195286744556912e-5 
-0.00011747498363355095 
-2.0087225505236957e-5 
-1.0846537077044577e-5 
0.05910600210538404 
1.7550846839946677e-5 
0.0001564406191524179 
0.00013554470198807618 
-1.238351970081047e-6 
-5.749976083003209e-6 
-1.9227111800067025e-5 
-1.2773882746648251e-5 
-4.57349751057534e-7 
2.380981397449216e-6 
-7.928170134016807e-5 
-0.0003908507071410169 
0.22820288189100607 
8.15261898374147e-6 
-8.80957696778439e-5 
0.059911919365245224 
-6.016018457633063e-6 
2.8591833634550985e-5 
0.0009395075456418708 
-0.00012663761480603917 
0.001670754648554203 
-1.6879809480236257e-7 
-2.1018836751763365e-5 
-0.0003485227928986591 
-3.550377300415455e-5 
0.0002619314945177057 
-1.6996635521356373e-7 
-7.621426517396488e-6 
0.00041736583534195793 
0.08177567408111751 
-1.416087577043521e-7 
-0.00010742157484156645 
-7.692861726420647e-6 
-0.00021530613629125336 
1.9257520577518716e-6 
2.1355999533232127e-5 
-5.3632137907665855e-5 
0.00011293047080627392 
-2.141421077243683e-7 
-0.0013044628389778461 
0.001624635774636728 
0.001507850659087843 
0.014218945395247679 
0.003199674615662619 
0.010861306275125828 
6.244271093936392e-6 
-3.983334625879208e-6 
-9.307906040313008e-6 
2.0939481826220128e-5 
8.477398610189733e-5 
-1.3316384008083608e-5 
0.10631955369708286 
0.05755713679479361 
0.055313738212893634 
-1.2222825652399978e-5 
-1.5511223772012304e-5 
-2.0808924005127154e-5 
5.9010986190920044e-5 
-6.839064333065393e-5 
1.8494698255816958e-6 
6.624896984260233e-5 
-8.804041002392104e-5 
-1.0173311069195812e-5 
2.7205669137345265e-5 
0.00013312894139017576 
0.00030916976434444443 
0.03869631383605936 
0.009523432157737013 
4.772060001571226e-5 
1.6179937821392737e-5 
9.488073104750363e-5 
-0.0002067588198921391 
0.038959366262088374 
0.013350915915906307 
-2.067765489428246e-5 
-1.8845192630394627e-5 
0.005674543826402682 
0.0014967737470945746 
0.0010498980641534203 
8.223685215382537e-5 
-0.00017244630503963828 
0.00012942361485434326 
0.00010114294029485691 
0.00010196302079527833 
3.95816532927947e-5 
-5.7774326566206266e-5 
3.383491949675257e-5 
-0.0003899015830015446 
0.0007327197816753789 
-0.0004631088079456022 
-1.3770070973030432e-7 
1.3778837901002716e-6 
7.88923662079691e-8 
-7.5151544177166074e-6 
1.8545348055859066e-5 
3.4887491076253205e-6 
0.00015854577601099766 
-3.099158875809686e-5 
0.00016164293884445317 
-8.755396357353541e-5 
1.227585174430622e-6 
-1.233504971595587e-6 
1.4638932855696502e-5 
2.2788148631283847e-6 
-4.649080530338362e-5 
5.48705345582054e-5 
-0.00023806116028113558 
0.000188804469063541 
-4.2982402142007275e-7 
-8.174671539740739e-7 
1.675890498867206e-6 
8.635545432458032e-6 
6.734558345087014e-5 
1.247308290555975e-5 
-4.357283957307864e-5 
0.00012621750019837054 
-2.4067761034076054e-5 
-6.641150892996238e-5 
0.16258305708988688 
0.09222018959218362 
0.15233939366142532 
2.034676354649816e-6 
-1.6539938319859291e-6 
-2.89630755692415e-7 
-3.089055235055737e-5 
0.0002824781681138362 
-0.0007438026987550054 
-1.3861068016783266e-6 
5.253099317208604e-7 
-1.0493211537409017e-6 
1.7684897884454042e-5 
-2.4538395545824923e-5 
3.98130556630148e-6 
0.0001229399542755856 
-8.180334821215505e-5 
6.0231912457161186e-5 
0.000595073394640516 
-0.0005796503769053179 
-0.00016727933508173457 
-5.1234180070730775e-6 
-6.563484927165128e-7 
-9.335063281855131e-6 
-3.853573160878251e-6 
1.0132550224876612e-5 
-3.959398908504118e-6 
-6.936875489009611e-6 
4.3092050777429225e-5 
-6.563188716835551e-5 
-1.372969855468171e-5 
-0.0003608064513538574 
-1.4248773663054343e-6 
-2.38411764421231e-5 
-0.00012295549691228433 
-6.775144177234743e-6 
6.1833656060512945e-6 
6.7593953218387e-5 
-0.0004590336628993948 
0.0002810485039729977 
4.219290346871481e-5 
1.385810062688083e-5 
3.6795448054926215e-6 
-4.766017387759888e-6 
-5.854306227464398e-5 
2.6724743557205753e-5 
-0.00021035277529154385 
-4.076342663958955e-5 
0.0001094040740808905 
-5.9839098969782145e-5 
-4.54715724405975e-5 
1.5551984147595734e-5 
0.00039810093338567515 
-3.0660208594426754e-6 
-3.8744610987982743e-7 
-6.8280032943140866e-6 
-1.646681896900421e-6 
3.0967061471104476e-5 
-1.2684113500902706e-5 
6.258704447492773e-5 
-5.145935995740129e-5 
-1.0575072334887722e-6 
3.704543511887938e-7 
1.1991428712172642e-5 
-4.788873944980037e-6 
1.0861888029858346e-5 
2.9967712984249554e-5 
5.4127627888314955e-5 
-1.9470018518895627e-5 
0.039091691544216295 
0.03133210547815771 
3.6704724083944282e-6 
-2.348662826420277e-6 
8.317328343339636e-7 
-4.038969736619842e-5 
3.974058196655542e-6 
0.0010182365018771178 
-0.0009784788898662107 
-0.001576114572248962 
-3.95769596794551e-6 
1.3031874946809392e-5 
2.8020495181135123e-5 
6.342047767613174e-6 
-3.290424121325851e-6 
-4.798940402082136e-6 
0.00019972423265852325 
0.00073170024204126 
0.00030955444616651825 
-0.00020031052864073713 
0.0008706248999631312 
0.0004902195693094759 
-3.3643587154921015e-7 
-1.0741606346173888e-7 
3.890574368495158e-5 
-7.673424305631499e-6 
-0.00028808828116486535 
0.0005389910666751857 
-0.00027865412416667546 
0.0010655784353145632 
0.0016775910956387397 
0.00032594325951526445 
1.0425956118349494e-6 
-2.2835359067997336e-6 
6.868532743894435e-7 
-1.8177571299582696e-5 
-3.7283209869939964e-5 
6.44348128419581e-5 
0.00015558623120752265 
0.00028850000535979395 
-0.00013977869658841509 
-2.3612187610270277e-6 
1.8910251375161207e-6 
-7.995624998352655e-7 
3.7725185717686756e-6 
4.44275706607291e-6 
-5.907340156079744e-6 
2.2998418537150652e-5 
2.0324586564327383e-5 
3.7527659806793296e-5 
1.0551060699562895e-5 
-4.1200409619537276e-5 
-0.0001379284410384899 
-0.0006818600671157851 
-4.142104258962786e-6 
1.0252212382079223e-5 
5.5741477081926614e-6 
-5.977870726945748e-6 
-0.00020031750198474128 
-0.00013580185744273198 
-3.0006066846303466e-5 
0.00012294666488448175 
-0.00021341717799972976 
0.0006677151407040549 
5.884859101383792e-7 
-8.104582127236074e-8 
-3.6258997442178063e-6 