# vtk DataFile Version 3.0 
Unstructured Grid 
ASCII 
DATASET UNSTRUCTURED_GRID
POINTS 2173 float 
-0.5 -0.5 0  
0.5 -0.5 0  
0.5 0.5 0  
-0.5 0.5 0  
-0.475 -0.5 0  
-0.45 -0.5 0  
-0.425 -0.5 0  
-0.4 -0.5 0  
-0.375 -0.5 0  
-0.35 -0.5 0  
-0.325 -0.5 0  
-0.3 -0.5 0  
-0.275 -0.5 0  
-0.25 -0.5 0  
-0.225 -0.5 0  
-0.2 -0.5 0  
-0.175 -0.5 0  
-0.15 -0.5 0  
-0.125 -0.5 0  
-0.1 -0.5 0  
-0.075 -0.5 0  
-0.05 -0.5 0  
-0.025 -0.5 0  
-1.3761214e-12 -0.5 0  
0.025 -0.5 0  
0.05 -0.5 0  
0.075 -0.5 0  
0.1 -0.5 0  
0.125 -0.5 0  
0.15 -0.5 0  
0.175 -0.5 0  
0.2 -0.5 0  
0.225 -0.5 0  
0.25 -0.5 0  
0.275 -0.5 0  
0.3 -0.5 0  
0.325 -0.5 0  
0.35 -0.5 0  
0.375 -0.5 0  
0.4 -0.5 0  
0.425 -0.5 0  
0.45 -0.5 0  
0.475 -0.5 0  
0.5 -0.475 0  
0.5 -0.45 0  
0.5 -0.425 0  
0.5 -0.4 0  
0.5 -0.375 0  
0.5 -0.35 0  
0.5 -0.325 0  
0.5 -0.3 0  
0.5 -0.275 0  
0.5 -0.25 0  
0.5 -0.225 0  
0.5 -0.2 0  
0.5 -0.175 0  
0.5 -0.15 0  
0.5 -0.125 0  
0.5 -0.1 0  
0.5 -0.075 0  
0.5 -0.05 0  
0.5 -0.025 0  
0.5 -1.3761214e-12 0  
0.5 0.025 0  
0.5 0.05 0  
0.5 0.075 0  
0.5 0.1 0  
0.5 0.125 0  
0.5 0.15 0  
0.5 0.175 0  
0.5 0.2 0  
0.5 0.225 0  
0.5 0.25 0  
0.5 0.275 0  
0.5 0.3 0  
0.5 0.325 0  
0.5 0.35 0  
0.5 0.375 0  
0.5 0.4 0  
0.5 0.425 0  
0.5 0.45 0  
0.5 0.475 0  
0.475 0.5 0  
0.45 0.5 0  
0.425 0.5 0  
0.4 0.5 0  
0.375 0.5 0  
0.35 0.5 0  
0.325 0.5 0  
0.3 0.5 0  
0.275 0.5 0  
0.25 0.5 0  
0.225 0.5 0  
0.2 0.5 0  
0.175 0.5 0  
0.15 0.5 0  
0.125 0.5 0  
0.1 0.5 0  
0.075 0.5 0  
0.05 0.5 0  
0.025 0.5 0  
1.3761214e-12 0.5 0  
-0.025 0.5 0  
-0.05 0.5 0  
-0.075 0.5 0  
-0.1 0.5 0  
-0.125 0.5 0  
-0.15 0.5 0  
-0.175 0.5 0  
-0.2 0.5 0  
-0.225 0.5 0  
-0.25 0.5 0  
-0.275 0.5 0  
-0.3 0.5 0  
-0.325 0.5 0  
-0.35 0.5 0  
-0.375 0.5 0  
-0.4 0.5 0  
-0.425 0.5 0  
-0.45 0.5 0  
-0.475 0.5 0  
-0.5 0.475 0  
-0.5 0.45 0  
-0.5 0.425 0  
-0.5 0.4 0  
-0.5 0.375 0  
-0.5 0.35 0  
-0.5 0.325 0  
-0.5 0.3 0  
-0.5 0.275 0  
-0.5 0.25 0  
-0.5 0.225 0  
-0.5 0.2 0  
-0.5 0.175 0  
-0.5 0.15 0  
-0.5 0.125 0  
-0.5 0.1 0  
-0.5 0.075 0  
-0.5 0.05 0  
-0.5 0.025 0  
-0.5 1.3761214e-12 0  
-0.5 -0.025 0  
-0.5 -0.05 0  
-0.5 -0.075 0  
-0.5 -0.1 0  
-0.5 -0.125 0  
-0.5 -0.15 0  
-0.5 -0.175 0  
-0.5 -0.2 0  
-0.5 -0.225 0  
-0.5 -0.25 0  
-0.5 -0.275 0  
-0.5 -0.3 0  
-0.5 -0.325 0  
-0.5 -0.35 0  
-0.5 -0.375 0  
-0.5 -0.4 0  
-0.5 -0.425 0  
-0.5 -0.45 0  
-0.5 -0.475 0  
-0.002115384 -0.00023065208 0  
-0.20714286 -0.20714286 0  
0.20714286 -0.20714286 0  
0.20714286 0.20714286 0  
-0.20714286 0.20714286 0  
-0.28155318 -0.0017231192 0  
0.0017231192 -0.28155318 0  
0.28155318 0.0017231192 0  
-0.0017231192 0.28155318 0  
0.3319978 -0.33098683 0  
0.33098683 0.3319978 0  
-0.3319978 0.33098683 0  
-0.33098683 -0.3319978 0  
-0.14015679 -0.06698606 0  
0.06698606 -0.14015679 0  
0.14015679 0.06698606 0  
-0.06698606 0.14015679 0  
-0.1387125 -0.34573975 0  
0.34573975 -0.1387125 0  
0.1387125 0.34573975 0  
-0.34573975 0.1387125 0  
0.14046866 -0.34602854 0  
0.34602854 0.14046866 0  
-0.14046866 0.34602854 0  
-0.34602854 -0.14046866 0  
-0.05869875 -0.16617337 0  
0.18217777 -0.061504476 0  
0.062312964 0.18362015 0  
-0.18362015 0.062312964 0  
-0.034321424 -0.38563195 0  
0.38563195 -0.034321424 0  
0.034321424 0.38563195 0  
-0.38563195 0.034321424 0  
0.39586002 -0.2428538 0  
0.2428538 0.39586002 0  
-0.39586002 0.2428538 0  
-0.2428538 -0.39586002 0  
0.23688246 -0.38952246 0  
0.38952246 0.23688246 0  
-0.23688246 0.38952246 0  
-0.38952246 -0.23688246 0  
-0.24287231 -0.09948847 0  
0.09948847 -0.24287231 0  
0.24287231 0.09948847 0  
-0.09948847 0.24287231 0  
-0.11560815 -0.24300627 0  
0.24300627 -0.11560815 0  
0.11560815 0.24300627 0  
-0.24300627 0.11560815 0  
-0.40192315 -0.4008276 0  
0.4008276 -0.40192315 0  
0.40192315 0.4008276 0  
-0.4008276 0.40192315 0  
0.06409326 -0.40289903 0  
0.40289903 0.06409326 0  
-0.06409326 0.40289903 0  
-0.40289903 -0.06409326 0  
0.2962961 -0.23982804 0  
0.23982804 0.2962961 0  
-0.2962961 0.23982804 0  
-0.23982804 -0.2962961 0  
-0.28087237 -0.21196799 0  
0.21196799 -0.28087237 0  
0.28087237 0.21196799 0  
-0.21196799 0.28087237 0  
-0.0901279 0.007867504 0  
-0.05002927 -0.07494272 0  
0.0873353 -0.009871756 0  
0.0071518295 0.09216282 0  
-0.14120433 -0.1484696 0  
-0.14581114 0.13960092 0  
0.1458264 -0.14505939 0  
0.13960092 0.14581114 0  
0.41838804 -0.3182741 0  
0.3182741 0.41838804 0  
-0.41838804 0.3182741 0  
-0.3182741 -0.41838804 0  
0.32118136 -0.41712493 0  
0.41712493 0.32118136 0  
-0.32118136 0.41712493 0  
-0.41712493 -0.32118136 0  
-0.19707234 -0.014843048 0  
0.018050108 -0.20183705 0  
0.19707234 0.014843048 0  
-0.014843048 0.19707234 0  
-0.10938372 -0.41847488 0  
0.41847488 -0.10938372 0  
0.10938372 0.41847488 0  
-0.41847488 0.10938372 0  
0.15773043 -0.4267032 0  
0.4267032 0.15773043 0  
-0.15773043 0.4267032 0  
-0.4267032 -0.15773043 0  
-0.3204562 -0.07174808 0  
0.07174808 -0.3204562 0  
0.3204562 0.07174808 0  
-0.07174808 0.3204562 0  
0.02801032 -0.07269879 0  
-0.31817523 0.069836795 0  
-0.069836795 -0.31817523 0  
0.31817523 -0.069836795 0  
0.069836795 0.31817523 0  
0.43106207 -0.17757268 0  
0.17757268 0.43106207 0  
-0.43106207 0.17757268 0  
-0.17757268 -0.43106207 0  
0.0703783 0.071201205 0  
-0.051593844 0.064346604 0  
0.099701226 -0.08333426 0  
0.2863281 -0.17248559 0  
0.17248559 0.2863281 0  
-0.2863281 0.17248559 0  
-0.17248559 -0.2863281 0  
-0.2341888 0.04979648 0  
-0.049194112 -0.231281 0  
0.23358595 -0.04946041 0  
0.04979648 0.2341888 0  
-0.009939441 -0.13691185 0  
-0.26560438 -0.17864102 0  
0.17864102 -0.26560438 0  
0.26560438 0.17864102 0  
-0.17864102 0.26560438 0  
0.013302229 -0.43510666 0  
0.43510666 0.013302229 0  
-0.013302229 0.43510666 0  
-0.43510666 -0.013302229 0  
0.09432827 0.114700764 0  
-0.11539384 0.093188405 0  
-0.3413634 -0.005100272 0  
0.005100272 -0.3413634 0  
0.3413634 0.005100272 0  
-0.005100272 0.3413634 0  
-0.19817708 -0.3508856 0  
0.3508856 -0.19817708 0  
0.19817708 0.3508856 0  
-0.3508856 0.19817708 0  
-0.34100306 -0.27216324 0  
0.27216324 -0.34100306 0  
0.34100306 0.27216324 0  
-0.27216324 0.34100306 0  
-0.20269383 -0.14403741 0  
0.14393912 -0.2028372 0  
0.2026342 0.14393856 0  
-0.14393856 0.2026342 0  
-0.1030633 -0.10524017 0  
-0.4394695 -0.104853734 0  
0.104853734 -0.4394695 0  
0.4394695 0.104853734 0  
-0.104853734 0.4394695 0  
-0.44156647 -0.44156647 0  
0.44156647 -0.44156647 0  
0.44156647 0.44156647 0  
-0.44156647 0.44156647 0  
-0.2683254 -0.44465622 0  
0.44465622 -0.2683254 0  
0.2683254 0.44465622 0  
-0.44465622 0.2683254 0  
0.2654342 -0.4435478 0  
0.4435478 0.2654342 0  
-0.2654342 0.4435478 0  
-0.4435478 -0.2654342 0  
-0.27373606 -0.34534052 0  
0.34534052 -0.27373606 0  
0.27373606 0.34534052 0  
-0.34534052 0.27373606 0  
-0.05307205 -0.4481981 0  
0.4481981 -0.05307205 0  
0.05307205 0.4481981 0  
-0.4481981 0.05307205 0  
-0.35614902 -0.19390328 0  
0.19390328 -0.35614902 0  
0.35614902 0.19390328 0  
-0.19390328 0.35614902 0  
-0.14022674 -0.012452113 0  
0.14171903 0.011271359 0  
-0.01125192 0.14089845 0  
-0.19556868 -0.06932378 0  
0.070511825 -0.19668652 0  
0.19556868 0.06932378 0  
-0.06932378 0.19556868 0  
-0.24951252 -0.039742906 0  
0.04037078 -0.2503529 0  
0.24951252 0.039742906 0  
-0.039742906 0.24951252 0  
0.44100407 -0.36164257 0  
0.36164257 0.44100407 0  
-0.44100407 0.36164257 0  
-0.36164257 -0.44100407 0  
-0.4451273 -0.36589316 0  
0.36589316 -0.4451273 0  
0.4451273 0.36589316 0  
-0.36589316 0.4451273 0  
0.1121834 -0.30242515 0  
0.30242515 0.1121834 0  
-0.1121834 0.30242515 0  
-0.30242515 -0.1121834 0  
-0.115146436 -0.19087775 0  
0.19190264 -0.11309679 0  
0.11520548 0.19263776 0  
-0.19263776 0.11520548 0  
-0.08287991 -0.37025127 0  
0.37025127 -0.08287991 0  
0.08287991 0.37025127 0  
-0.37025127 0.08287991 0  
0.23791528 -0.24381089 0  
0.24381089 0.23791528 0  
-0.23791528 0.24381089 0  
-0.24381089 -0.23791528 0  
-0.44626984 -0.21174923 0  
0.21174923 -0.44626984 0  
0.44626984 0.21174923 0  
-0.21174923 0.44626984 0  
0.35174853 -0.37705234 0  
0.37705234 0.35174853 0  
-0.35174853 0.37705234 0  
-0.37705234 -0.35174853 0  
-0.048605647 -0.023262763 0  
-0.1551113 -0.21381997 0  
0.21381997 -0.1551113 0  
0.1551113 0.21381997 0  
-0.21381997 0.1551113 0  
-0.29403278 -0.30027482 0  
0.30027482 -0.29403278 0  
0.29403278 0.30027482 0  
-0.30027482 0.29403278 0  
0.12173745 -0.390654 0  
0.390654 0.12173745 0  
-0.12173745 0.390654 0  
-0.390654 -0.12173745 0  
-0.12236246 -0.2979882 0  
0.2979882 -0.12236246 0  
0.12236246 0.2979882 0  
-0.2979882 0.12236246 0  
-0.0945969 -0.046371013 0  
0.035276897 -0.027358124 0  
-0.0076714605 0.051946 0  
-0.30809116 -0.17165439 0  
0.17165439 -0.30809116 0  
0.30809116 0.17165439 0  
-0.17165439 0.30809116 0  
-0.16592422 -0.10879113 0  
0.10700909 -0.1687818 0  
0.16864619 0.10664837 0  
-0.10664837 0.16864619 0  
-0.16784625 -0.38069874 0  
0.38069874 -0.16784625 0  
0.16784625 0.38069874 0  
-0.38069874 0.16784625 0  
-0.4563872 -0.05993889 0  
0.05993889 -0.4563872 0  
0.4563872 0.05993889 0  
-0.05993889 0.4563872 0  
0.31103167 -0.37412483 0  
0.37412483 0.31103167 0  
-0.31103167 0.37412483 0  
-0.37412483 -0.31103167 0  
-0.3909646 -0.012754724 0  
0.012754724 -0.3909646 0  
0.3909646 0.012754724 0  
-0.012754724 0.3909646 0  
0.44915667 -0.21679194 0  
0.21679194 0.44915667 0  
-0.44915667 0.21679194 0  
-0.21679194 -0.44915667 0  
0.045831423 0.12033131 0  
-0.12662303 0.045442794 0  
-0.3107799 -0.37355793 0  
0.37355793 -0.3107799 0  
0.3107799 0.37355793 0  
-0.37355793 0.3107799 0  
0.04152367 0.021693805 0  
-0.08040017 -0.2675595 0  
0.26794365 -0.08044455 0  
0.080500565 0.2680441 0  
-0.2680441 0.080500565 0  
-0.13753757 -0.45578164 0  
0.45578164 -0.13753757 0  
0.13753757 0.45578164 0  
-0.45578164 0.13753757 0  
-0.05507968 -0.12135967 0  
0.14172421 -0.09428923 0  
0.2571752 -0.19664502 0  
[...]
POINT_DATA 2173 
SCALARS T float 
LOOKUP_TABLE default 
1.4465352554250445e-17 
1.2777516243507218e-20 
3.197668204366596e-19 
6.81504375192229e-19 
1.2750834345700974e-16 
-1.8265175382095015e-17 
6.885409180484795e-16 
-3.7592212244819024e-16 
-1.2016886733868331e-16 
9.88180684865692e-17 
1.842839891257537e-16 
1.0532614589188147e-15 
-6.573971191431038e-16 
9.413046100049697e-16 
-1.4164209622618718e-15 
7.257223147309457e-16 
7.197836945649377e-16 
7.93765859069724e-16 
2.1738369580542328e-15 
-1.0212474395530628e-15 
7.361668369748797e-16 
8.450312398886207e-16 
-1.1366110329364104e-15 
1.1360406570617867e-15 
-1.0120161910489601e-15 
1.0513900095711517e-15 
-7.702701345220537e-16 
8.745738727033293e-16 
8.64060404590583e-17 
2.0173914602420208e-16 
8.384302400701325e-17 
-5.772555083901794e-17 
1.645538490474186e-17 
-2.0526835520948444e-16 
-1.5269941948756422e-16 
-9.892703919705428e-17 
-1.5253178006499517e-17 
-3.321638227542738e-17 
-9.011581606493992e-18 
-1.8027324288107063e-18 
-1.5811410490366008e-18 
-1.1361062107877589e-18 
1.7885552290359014e-19 
-2.5002392507872665e-19 
6.846734314078805e-19 
1.1183169147494296e-18 
6.155116000857939e-19 
-3.396614983585011e-19 
-2.747384149090139e-18 
-2.2015259086568138e-18 
-8.422588823419388e-18 
3.6950362059562707e-19 
2.2128193657533993e-19 
2.38749765040569e-18 
-5.799356848292587e-19 
2.8254831607987014e-19 
-1.4226159577024232e-18 
2.0725015997153325e-18 
-2.4816908583234127e-18 
2.4590076206314017e-18 
-2.3533899018396436e-18 
7.6549004534593085e-19 
-1.89459271440761e-18 
2.1118087858029115e-18 
-2.1295372400291e-18 
9.92974445881591e-19 
5.572894391972586e-18 
7.302895539082184e-18 
-7.410618608156319e-19 
-3.429844442154538e-18 
6.798251925764616e-18 
-1.7196850850988445e-17 
1.437398709937105e-17 
-1.3426330120160578e-17 
-1.7376133697710187e-17 
1.4781354234127188e-17 
-2.554639094342716e-18 
-3.4711869322558956e-18 
-9.763329044605093e-18 
2.0285814424553186e-17 
-2.7469251070007355e-18 
-4.82480977796381e-18 
4.941849876936543e-18 
5.299536194560292e-19 
-1.6796102078490583e-17 
8.553824695321635e-18 
5.861993871372469e-18 
-1.3206014991891018e-18 
2.3170260452053116e-19 
-3.637331948956612e-19 
-1.975501402421695e-17 
3.532732498371715e-17 
-4.0354256049732717e-17 
1.383007606768128e-17 
1.140167445234319e-17 
-1.5611156494431313e-17 
3.147621216637881e-17 
-5.1652832706738916e-17 
6.363109912869417e-17 
-3.842702237858664e-17 
-1.3707992928729205e-17 
-2.1080236013700465e-18 
7.460757574944588e-19 
9.489007803693065e-18 
-2.0915322821092754e-17 
-2.9288413143764455e-17 
4.926920106611323e-17 
-4.754867595222457e-17 
2.505821070662213e-17 
-3.682401322784318e-18 
-9.826339871350001e-17 
1.7120853794410157e-16 
-1.330739413525958e-16 
-1.4854712592598434e-17 
-3.177036939114686e-17 
-8.134206010228757e-17 
-9.632807901522589e-17 
-8.499796099176853e-17 
2.9732308859781836e-17 
-3.3285828691183844e-17 
-2.8793434952714814e-17 
2.700540454623609e-17 
3.6952593449171496e-17 
-1.722934342257422e-17 
1.0981896438122947e-16 
1.3787633454690482e-16 
1.0754226431394876e-16 
-4.9149579069292595e-17 
-1.218682021412284e-16 
-1.1985817100485314e-16 
-1.3220217930844463e-16 
4.5475607565392754e-18 
-1.3318214858187008e-17 
1.2288005947760665e-16 
1.1557279613696586e-16 
5.970536734758133e-17 
5.053206654793653e-17 
-1.4689630945522169e-16 
-7.909717724085137e-18 
1.4208325675436107e-16 
6.283465263317718e-17 
-2.865991841009985e-16 
5.665576164135491e-16 
-6.831049869409103e-16 
7.729874866721417e-16 
-1.1646580432621486e-16 
1.755375241021007e-16 
-1.33357821996105e-16 
3.64344425906112e-17 
2.630311395231484e-16 
-2.2153530284325678e-16 
-7.730212347286283e-17 
2.6457000949654954e-16 
6.997403180731197e-17 
-6.531430003437366e-16 
-1.6749642459736464e-16 
8.879284505218827e-17 
-4.1435893730856514e-16 
-2.2840188803712857e-17 
-1.0172896736743793e-16 
-2.4367619724187657e-6 
0.00041835533491278753 
0.3805260849061022 
7.222243009576247e-6 
-2.0276044181555038e-5 
0.0002274688041579366 
0.008430723949407196 
-1.3540864362295762e-5 
1.1579408546776276e-6 
-7.036912121714003e-5 
-3.243589412985782e-6 
5.671026047572095e-5 
0.0005840113387102149 
-3.3254278069524706e-5 
0.09576109021009553 
-1.3071982924966505e-6 
-2.6511957646000277e-5 
-0.0008511863975151254 
2.528477964542237e-6 
1.479015305646149e-5 
-0.00012487493907912089 
0.017638022581352178 
3.856801180420752e-6 
-1.5397000855795352e-5 
-0.00025497510813506476 
0.0024959787409354695 
0.012329350577547334 
4.404037101687425e-6 
-0.00017622638615956006 
-0.001887012245090142 
-5.631913326828818e-7 
-3.4416765104016153e-6 
0.00016043867823308157 
1.22459968643607e-5 
8.868916789865433e-6 
-9.299911150269546e-5 
-0.00035040049860319677 
-0.0004329547945777964 
7.466545615968039e-6 
2.2490460311360473e-5 
-0.00011678796987490057 
0.00042525238285613437 
0.3840288856249046 
1.2091954407850403e-6 
-2.8915843306269237e-5 
0.0003700319161083333 
0.03296455535605691 
6.680080066428513e-6 
8.046644810525535e-5 
-0.0001244083134713169 
-1.7017696552858693e-5 
-2.8779864475150383e-6 
-1.2641926026328282e-6 
0.0006447728232722764 
-6.355969323119723e-7 
-3.39369922887442e-5 
-0.0004359182055652337 
0.00505359972134269 
-2.7546351046035043e-6 
4.847914797244629e-6 
-0.0002493731889257948 
0.0002883527695071267 
0.09443234099602889 
-6.88051347064523e-6 
-9.629886795500422e-6 
7.942046496861908e-5 
0.0010541186201390531 
9.885180149610328e-5 
4.150223244004716e-6 
-0.000563304668364607 
8.338518032927329e-5 
0.4136231496885174 
8.68571237681775e-6 
4.483172371433291e-6 
5.423401542077193e-7 
3.640676959325098e-5 
-0.0007236001340620332 
-2.751889178405221e-5 
-5.810203061009822e-6 
-5.183635443756722e-7 
0.00020978276815936543 
-3.736502216218831e-5 
0.029831822385053157 
-3.295141077487431e-6 
1.6710337494158584e-5 
-0.0015502085238351328 
7.66620045386817e-8 
1.9150546469914453e-5 
-0.00014684871806979393 
0.0006941776447786924 
2.5248378644722824e-6 
-8.245752006536642e-6 
-3.955733482467007e-5 
-0.00048208953257625263 
0.010537925245174842 
4.119708137540204e-6 
-6.107861381532366e-5 
0.0013497096781761246 
0.00014018938271712433 
-0.0006189755300870329 
-3.731473400844445e-5 
6.383718029489527e-6 
-5.66100157328574e-7 
-7.929301356513045e-6 
-0.00016282764305418633 
9.88859573458987e-5 
-1.5362351935747668e-5 
-6.604817253200228e-7 
0.030444894717560816 
0.016553484202262724 
9.051046826753457e-6 
-2.433731775720507e-6 
-0.00011327772956151227 
-5.7213423568704534e-5 
0.006967469725630081 
0.001662320288859419 
1.8989627306321969e-6 
0.003824943071248429 
-0.00032163086066171436 
0.29206758202294086 
-7.129116694099001e-6 
6.677502597464485e-5 
-0.0016013194440478355 
7.657276703402515e-7 
-4.203341993098202e-6 
-0.000258578939178581 
7.425335923132032e-7 
-2.5912881300260988e-6 
-0.0001116877119233668 
-0.003977128148630884 
-1.7577328328355277e-6 
-5.088299916033382e-6 
-0.0009216397912969886 
3.429474951095599e-5 
3.6094469057907566e-8 
-1.672188979914401e-5 
-0.00041612301926889183 
0.00014381639186822998 
-9.34367793300195e-6 
3.0977132516816946e-6 
-0.0014393724466582865 
0.7791320895140943 
-2.73157546176808e-6 
4.4926228210344085e-5 
0.0012572473179941236 
0.00021948714562969215 
0.0001702420929692873 
-1.970570505189796e-6 
1.8660547100361492e-5 
-8.093449203686941e-5 
-1.6024462087072223e-6 
-3.519532828205086e-7 
3.8456944025868815e-5 
-0.0009236328690634658 
4.157033454075539e-6 
-8.468134009716277e-6 
8.441710317002781e-5 
-8.584037550832244e-5 
5.441942116885834e-6 
1.1441135865216009e-5 
-0.0003635517624919228 
-0.0005226928882000204 
-0.00012883422066577245 
1.208724652485129e-7 
-3.1545800766213524e-6 
0.00024277871828930645 
1.948347017166702e-7 
-4.600805778474099e-6 
-0.0001702496767565735 
0.0005121508203457454 
0.0026551314799575696 
-6.934122416246607e-6 
3.559043296565583e-5 
0.0002300688429731669 
9.0938773963763e-6 
6.531739576473865e-5 
6.280764650263624e-5 
0.25412335062447733 
-4.507737612994887e-6 
-6.202260352513908e-6 
-0.00017881190956098354 
0.04480237908677997 
-3.31278249712963e-6 
2.470265038646038e-5 
-9.489652620152354e-6 
-1.0538638105888873e-5 
2.986908992673906e-5 
-5.350608413180327e-5 
-0.00011128810038395539 
-2.415795836370407e-5 
-5.270123037238554e-6 
7.909805515864736e-5 
0.07685870045301675 
-7.590007895306376e-6 
5.1991789794949775e-5 
0.0006182580906794636 
-0.0006074391179698792 
0.11921435757291018 
2.2811795488914406e-6 
-8.023418618473708e-5 
-0.0017227433377672208 
-9.103033882793456e-6 
3.2465651069326246e-6 
-2.3041908575624555e-5 
0.10570209608750787 
1.7364570367679463e-6 
-6.338141032970796e-6 
-0.00034105864863534274 
2.0883309607039994e-5 
5.690529288482508e-5 
-6.2503046526477935e-6 
-4.163733208786444e-5 
6.032543251101672e-5 
5.44949826775035e-6 
7.805625309285206e-6 
0.00010050129347751615 
1.0055593706180238e-5 
-0.0011071856861082016 
0.22358479288064115 
-1.0510539985040263e-5 
0.00010992174004692109 
0.0005071769641823073 
0.00074855492390354 
1.9333023414446424e-6 
9.41012191730193e-6 
0.0019389269707437366 
4.340816009457893e-6 
-4.4521437174656235e-6 
7.078348552328087e-5 
-0.001626596257949563 
0.0024325854065252624 
2.426842008468815e-5 
-0.0001966563988129392 
0.0007851852068614029 
8.493925753756386e-5 
-1.5758197368181201e-6 
0.0003317113337621754 
0.0728760335721051 
-7.095073025173498e-6 
5.865244899089914e-5 
0.0012493583852048434 
0.45642289686733806 
-3.893489434657048e-6 
4.340121483857425e-5 
0.0001744869604561851 
-2.0274801321853696e-5 
3.3220809753491542e-6 
-0.00022257458428393047 
5.8347100462491e-5 
0.00010559658238792496 
-1.3531416079313469e-6 
6.499741721398011e-7 
-0.0001641005582549744 
-2.6482745705910422e-6 
-1.443990248197916e-7 
-6.68286000418276e-5 
0.00017435778834318276 
-0.002488399969562994 
-3.8289068973690936e-6 
3.25960471181089e-5 
6.198882523928152e-7 
2.3314437947730446e-5 
8.561642395010483e-5 
0.0009580286004980919 
5.159938392792958e-6 
-8.680801963846699e-5 
-4.850178899605228e-5 
-5.0330991613098926e-5 
3.194995131606045e-6 
-5.419992411587566e-6 
7.209296503017517e-7 
-0.0020587080216442743 
0.0022632310202159887 
2.471204767769621e-5 
-2.0958108384087934e-5 
-0.0008504437181682429 
-9.474914078947893e-7 
2.9208408639928948e-5 
-5.5666700041748614e-5 
0.0020259379626503186 
0.08057359167991794 
0.07437944449428345 
-4.233998901936001e-6 
7.646465796612692e-6 
-0.0009459121475773646 
0.00367750842180322 
6.649991743455954e-5 
-0.00017068074253800698 
1.594751870946087e-5 
5.112544808687001e-6 
-1.1518770137957457e-5 
-2.205059134191719e-6 
-1.1101394660067521e-5 
-1.3342829636146422e-5 
-0.00012872525583048256 
5.946956139195901e-6 
1.1714420229433867e-5 
7.48107501385843e-5 
-0.00013381324375721947 
-9.92108465093282e-8 
8.502490311683145e-6 
0.0004222713192260821 
0.0649711045317255 
3.55336666925897e-6 
-1.0674452169523312e-5 
-3.032668847216697e-5 
0.15287459630123043 
0.00048516405594674204 
-0.0023693152593324066 
0.0006755906152359988 
-2.68909923525348e-5 
-9.513041490655443e-5 
-2.452469420218793e-5 
-0.000444795569540277 
5.563328069407283e-7 
2.4598141928893785e-5 
-1.8143543306135933e-5 
0.00015930953806449146 
-1.3628526023052169e-5 
-1.54809744951387e-5 
0.022809552380263113 
0.03867287705810951 
0.004737658094000865 
-1.8785484005123644e-6 
2.872586460354212e-5 
0.0003998276802964567 
-0.00014853459735643106 
-3.436897034867681e-5 
3.234406090652407e-6 
2.1322961502161053e-6 
-7.463775258008275e-5 
-0.00010949721567320816 
-0.0002667596568716165 
-1.1303813856906188e-5 
9.75911946804257e-7 
-0.0007239519958650812 
-7.114805121708791e-7 
-1.1567679149343301e-5 
2.9173463782446912e-5 
-0.00858993449691713 
-3.1699753383605136e-6 
-9.235410271801486e-6 
0.00032863388545333153 
-8.549659751739622e-5 
0.007054269321902988 
-1.7095632658060892e-6 
2.4266512448654363e-5 
0.0005907460959527343 
-2.127153460307087e-5 
0.5639289213595923 
9.04278824780203e-6 
-6.512427607059375e-5 
2.5871210711783084e-7 
9.760465149075768e-6 
-0.00011856403919171338 
-0.0004496438699067592 
-8.296120728808745e-6 
1.7521466935485794e-6 
-8.755529609768383e-5 
-0.00026625453988501175 
8.22026224013171e-7 
2.6518989609325522e-5 
-0.00015307995502190233 
-0.0002781541437323772 
-0.001000520150791946 
-5.9696049958628665e-6 
-4.2702622910528e-5 
-9.679942645005908e-7 
7.742916470986416e-6 
2.0764609099888958e-5 
-0.0003877015159374673 
4.4872026051581453e-7 
1.079505177925051e-5 
2.4894885475292538e-5 
-0.00012624986346445664 
-0.0003571142368869182 
-0.001912180929828669 
-3.375660509166672e-5 
3.103211709471053e-5 
0.0002976126625768505 
-2.7950168929347837e-6 
-1.4105401117947945e-5 
-7.288610845094056e-6 
0.0001295416081105446 
0.0001271737098392142 
-0.0035602732519020115 
-1.092605699732264e-6 
-1.3483772565638357e-6 
0.00018192351896928921 
-0.0017131378500218162 
-2.5445222394369744e-6 
-8.13150275985186e-6 
0.0033177345083769618 
0.00026026890069798524 
0.30568742296385804 
-5.825698095084406e-6 
4.588837295307751e-5 
6.038867401105327e-7 
1.0554485100882633e-5 
6.603178680411152e-6 
0.0012048637762670988 
8.53066110426471e-6 
-0.002068361700123377 
0.5700456178061957 
-2.0503834795728554e-6 
3.215134701831618e-5 
-9.360607016276917e-5 
7.673664841830399e-7 
-9.356419306837312e-6 
-0.0004231238546828238 
0.05462169859234537 
3.179210682487236e-5 
-2.6335722677129684e-5 
0.0008091181399360145 
-2.0952601626003802e-5 
-0.00010346969420134407 
0.014422035930516976 
-6.944629233919362e-6 
5.975813603427635e-6 
-0.000537365567613232 
-0.00010875916192026164 
-0.002553997116518776 
1.2326978835995173e-5 
2.372000317771305e-6 
-0.000151614008932623 
0.006100761015502552 
6.915234810424019e-6 
-2.0677241111091784e-5 
0.0005530231148513847 
0.018971257333909846 
8.86613239436196e-6 
-2.150544523545999e-5 
8.734982728613075e-5 
4.319865431646141e-6 
1.1708927232573017e-5 
0.0007754503232269377 
0.00020432661731570374 
5.894906180624481e-6 
5.5147975329407276e-6 
9.933964801677862e-5 
-0.000900752433191117 
0.0010298726532910695 
-5.368716859999302e-6 
-8.16059869652809e-5 
0.0006805160131983297 
0.003396539730320995 
9.390867264058728e-6 
6.0104751834770424e-5 
1.9800480133882783e-5 
0.00013730927330967002 
-0.0001405367286253989 
1.5946958886504028e-6 
1.1363217484251943e-5 
-0.00019518435244206432 
-7.616335667429536e-5 
1.5237974023513397e-7 
1.0754136654891402e-6 
2.9068658314763596e-5 
-0.00023057544614972278 
0.4053062189500807 
-1.4733766862248852e-6 
4.103717153284578e-5 
-0.0004114589942987085 
0.0006967578524988652 
4.890986699742071e-6 
-2.7133043075997023e-5 
0.00968954074545023 
-0.0005745514278456729 
-7.998027517078509e-7 
2.8080823766080525e-5 
-5.527375255069288e-5 
0.003328762198505311 
-6.098154444989136e-5 
-2.7258139897437915e-5 
1.8646452223279977e-6 
2.005582964600771e-5 
0.5970823877141627 
6.548527912910195e-6 
-1.7412541600941648e-5 
-0.00064024515428626 
0.0008149289399818926 
-1.108746105013916e-6 
-3.64884579708914e-5 
-1.6680408536556716e-5 
0.00016593164607411087 
0.0014090017663605317 
-0.0006409764448862454 
0.3853787413206856 
0.1817592273447146 
0.3060947720653232 
4.010437135607962e-6 
1.1714272950934295e-5 
-9.476706005597087e-6 
-8.28302672828738e-5 
-7.428538656223911e-5 
0.00012149807235671034 
0.00223421178526317 
-0.00033827914737871853 
-0.0038208422108314917 
0.0009958845686547342 
0.0033226678690478806 
0.0050687632876812464 
-1.0490589859833381e-5 
9.578384781814e-6 
-2.6046386865957665e-6 
0.00016770840765273354 
-0.00025818593204328524 
0.00014255313174045854 
-0.0018260269333708352 
0.0016845573477908004 
-1.1904512340696291e-5 
-7.372449201649693e-6 
0.5240514926011499 
0.2530760906234255 
8.998387184251463e-6 
-1.1321399220379086e-5 
-2.341315257556187e-6 
-3.9306673833734456e-5 
-0.0026291754392351522 
0.0024549263532283347 
0.00659256788503667 
0.01679911322271604 
3.6296902649174955e-6 
-8.2713232229872e-6 
-9.979425302824519e-6 
-3.624184809742641e-6 
1.3395215569383543e-5 
0.00011381314554067084 
-0.0013416120038905307 
0.00030595140299228445 
0.0009501984786179584 
-0.00042967654928357916 
0.0004933625742289368 
-0.0002925930766884324 
-0.00019258444835534464 
-3.909688200912512e-6 
-1.7693071620081572e-6 
9.35339658997534e-6 
1.0672717532709866e-5 
-2.3601317988035327e-6 
-1.505713803278754e-5 
-1.1787508916111646e-5 
6.230096980375031e-5 
-4.8586076688455886e-6 
0.00022430997416215997 
-3.802930726325885e-5 
7.642306308159637e-6 
1.0177049454240792e-6 
-7.036929012345073e-6 
6.215265992732994e-6 
1.4748248499760949e-5 
5.3620534041791385e-5 
0.00015273246874152684 
-0.00021098701619320565 
-9.328130990043911e-7 
3.4696146399574794e-7 
2.1846763244895458e-6 
4.17194087863519e-6 
3.9857033067846294e-5 
6.178424525589323e-5 
3.8691434056543406e-5 
0.00014838950835000653 
-0.00010320737382481105 
0.004089418940507292 
0.0030349463812513063 
-0.000718481530728019 
-1.8702414454898642e-5 
-4.079472762950948e-6 
1.4644516858027298e-6 
-1.666129945690286e-5 
2.9084256376404676e-6 
8.57471352476316e-6 
5.832689509953329e-7 
4.0716335057023004e-6 
-4.545945577743669e-6 
-6.907573538499037e-6 
1.1249023592461759e-5 
-1.0480757118157586e-6 
-5.9563751634010395e-5 
-3.7033884559572727e-6 
-4.599725186002068e-5 
-0.0002711043602854884 
-0.0001725355314505676 
0.000506641524728337 
2.5975202860419758e-5 
2.5753831804047776e-5 
7.00658995134147e-5 
7.464408254005264e-6 
-1.2546727068065191e-5 
4.9935993276713496e-6 
1.641985999413254e-5 
-4.793973723399698e-5 
5.886128830660032e-5 
-0.0001530088564841218 
0.0002468001361614317 
5.739898689046359e-5 
0.000245927919139632 
7.969097344613476e-7 
1.4490491422602168e-5 
-7.165894217021359e-5 
0.000104785295583775 
-5.1686911731229056e-6 
-7.510049411228033e-5 
6.577109232946877e-5 
4.1623140111244185e-5 
2.5836116707773147e-5 
3.219553348244647e-6 
8.843233987027367e-6 
6.936827515417363e-5 
5.253916326240069e-5 
-0.00012718896694311466 
-0.00017751523916307644 
0.00016552414747647402 
-0.00039074042596557156 
-0.0002846796106204076 
0.0001485155821061592 
-0.0003401217986984106 
8.51453635792041e-6 
-1.2207222426136173e-5 
1.2002750145083047e-5 
-3.1577064878503315e-6 
5.27021236851458e-5 
-4.5675040595605896e-5 
-0.00026597442787443026 
0.00010100847817763026 
-2.006172841221785e-6 
-1.1309188653923209e-6 
-6.252012879888336e-7 
5.244368916495522e-6 
2.390802984804806e-5 
-6.624789419826352e-5 
5.647652632796673e-5 
5.1941861667031444e-5 
-0.0015822357488560143 
0.0016367191776706902 
-7.247643702096005e-6 
-8.673027494204332e-7 
-8.099850314897404e-6 
-2.5149727858598692e-6 
-0.0005202806204986022 
0.00035597558541003546 
0.0005605079641484796 
-0.0003561940963811695 
0.00010059802310212141 
0.0008403845198685962 
-1.3872837394492642e-5 
6.961780299962447e-6 
6.848707337989493e-6 
2.752732421880711e-5 
2.0594763001902707e-5 
-6.463423800521953e-5 
-6.117385465568952e-6 
2.544066920706885e-6 
-0.000838578162488773 
-0.00011222345246931997 
-2.004639932547025e-6 
-1.6034347049042444e-5 
3.5636719698757366e-7 
4.2574489875156427e-7 
-0.00017691526539886197 
8.042448581066898e-5 
0.000313094317081479 
-0.000418287770282968 
-0.00037585100988895583 
-4.409707561864646e-6 
-8.804043718521114e-7 
1.2686693482368594e-6 
3.754425811745257e-5 
-1.9894274523579348e-5 
-1.3843477344647748e-5 
0.00048638340973224185 
-0.00045839725367973155 
-0.00015023960017382626 
2.6655881313529515e-5 
3.9944105078204725e-5 
2.9731434302135952e-5 
1.456056651192735e-6 
-5.0973189323461815e-6 
3.866326206051461e-6 
-4.878880389916909e-5 
3.122165758186077e-5 
-3.4075986039324693e-6 
-0.0004397618671375961 
3.444964136783311e-5 
-0.00019122769555463543 
-0.00011933500657506423 
0.00024668317641435484 
-8.844104741760867e-5 
0.0002355885420254773 
-4.970183830509303e-6 
1.9344728221447352e-6 
2.384158394881397e-5 
3.148973550442057e-6 
-0.0009140326378267508 
-0.0015092732603822494 
0.002077754022691956 
0.00032512203257007805 
4.002218851964143e-5 
-6.995010097594517e-5 
-6.887183377234805e-6 
-1.33326507331254e-6 
4.374963244701146e-5 