# vtk DataFile Version 3.0 
Unstructured Grid 
ASCII 
DATASET UNSTRUCTURED_GRID
POINTS 2173 float 
-0.5 -0.5 0  
0.5 -0.5 0  
0.5 0.5 0  
-0.5 0.5 0  
-0.475 -0.5 0  
-0.45 -0.5 0  
-0.425 -0.5 0  
-0.4 -0.5 0  
-0.375 -0.5 0  
-0.35 -0.5 0  
-0.325 -0.5 0  
-0.3 -0.5 0  
-0.275 -0.5 0  
-0.25 -0.5 0  
-0.225 -0.5 0  
-0.2 -0.5 0  
-0.175 -0.5 0  
-0.15 -0.5 0  
-0.125 -0.5 0  
-0.1 -0.5 0  
-0.075 -0.5 0  
-0.05 -0.5 0  
-0.025 -0.5 0  
-1.3761214e-12 -0.5 0  
0.025 -0.5 0  
0.05 -0.5 0  
0.075 -0.5 0  
0.1 -0.5 0  
0.125 -0.5 0  
0.15 -0.5 0  
0.175 -0.5 0  
0.2 -0.5 0  
0.225 -0.5 0  
0.25 -0.5 0  
0.275 -0.5 0  
0.3 -0.5 0  
0.325 -0.5 0  
0.35 -0.5 0  
0.375 -0.5 0  
0.4 -0.5 0  
0.425 -0.5 0  
0.45 -0.5 0  
0.475 -0.5 0  
0.5 -0.475 0  
0.5 -0.45 0  
0.5 -0.425 0  
0.5 -0.4 0  
0.5 -0.375 0  
0.5 -0.35 0  
0.5 -0.325 0  
0.5 -0.3 0  
0.5 -0.275 0  
0.5 -0.25 0  
0.5 -0.225 0  
0.5 -0.2 0  
0.5 -0.175 0  
0.5 -0.15 0  
0.5 -0.125 0  
0.5 -0.1 0  
0.5 -0.075 0  
0.5 -0.05 0  
0.5 -0.025 0  
0.5 -1.3761214e-12 0  
0.5 0.025 0  
0.5 0.05 0  
0.5 0.075 0  
0.5 0.1 0  
0.5 0.125 0  
0.5 0.15 0  
0.5 0.175 0  
0.5 0.2 0  
0.5 0.225 0  
0.5 0.25 0  
0.5 0.275 0  
0.5 0.3 0  
0.5 0.325 0  
0.5 0.35 0  
0.5 0.375 0  
0.5 0.4 0  
0.5 0.425 0  
0.5 0.45 0  
0.5 0.475 0  
0.475 0.5 0  
0.45 0.5 0  
0.425 0.5 0  
0.4 0.5 0  
0.375 0.5 0  
0.35 0.5 0  
0.325 0.5 0  
0.3 0.5 0  
0.275 0.5 0  
0.25 0.5 0  
0.225 0.5 0  
0.2 0.5 0  
0.175 0.5 0  
0.15 0.5 0  
0.125 0.5 0  
0.1 0.5 0  
0.075 0.5 0  
0.05 0.5 0  
0.025 0.5 0  
1.3761214e-12 0.5 0  
-0.025 0.5 0  
-0.05 0.5 0  
-0.075 0.5 0  
-0.1 0.5 0  
-0.125 0.5 0  
-0.15 0.5 0  
-0.175 0.5 0  
-0.2 0.5 0  
-0.225 0.5 0  
-0.25 0.5 0  
-0.275 0.5 0  
-0.3 0.5 0  
-0.325 0.5 0  
-0.35 0.5 0  
-0.375 0.5 0  
-0.4 0.5 0  
-0.425 0.5 0  
-0.45 0.5 0  
-0.475 0.5 0  
-0.5 0.475 0  
-0.5 0.45 0  
-0.5 0.425 0  
-0.5 0.4 0  
-0.5 0.375 0  
-0.5 0.35 0  
-0.5 0.325 0  
-0.5 0.3 0  
-0.5 0.275 0  
-0.5 0.25 0  
-0.5 0.225 0  
-0.5 0.2 0  
-0.5 0.175 0  
-0.5 0.15 0  
-0.5 0.125 0  
-0.5 0.1 0  
-0.5 0.075 0  
-0.5 0.05 0  
-0.5 0.025 0  
-0.5 1.3761214e-12 0  
-0.5 -0.025 0  
-0.5 -0.05 0  
-0.5 -0.075 0  
-0.5 -0.1 0  
-0.5 -0.125 0  
-0.5 -0.15 0  
-0.5 -0.175 0  
-0.5 -0.2 0  
-0.5 -0.225 0  
-0.5 -0.25 0  
-0.5 -0.275 0  
-0.5 -0.3 0  
-0.5 -0.325 0  
-0.5 -0.35 0  
-0.5 -0.375 0  
-0.5 -0.4 0  
-0.5 -0.425 0  
-0.5 -0.45 0  
-0.5 -0.475 0  
-0.002115384 -0.00023065208 0  
-0.20714286 -0.20714286 0  
0.20714286 -0.20714286 0  
0.20714286 0.20714286 0  
-0.20714286 0.20714286 0  
-0.28155318 -0.0017231192 0  
0.0017231192 -0.28155318 0  
0.28155318 0.0017231192 0  
-0.0017231192 0.28155318 0  
0.3319978 -0.33098683 0  
0.33098683 0.3319978 0  
-0.3319978 0.33098683 0  
-0.33098683 -0.3319978 0  
-0.14015679 -0.06698606 0  
0.06698606 -0.14015679 0  
0.14015679 0.06698606 0  
-0.06698606 0.14015679 0  
-0.1387125 -0.34573975 0  
0.34573975 -0.1387125 0  
0.1387125 0.34573975 0  
-0.34573975 0.1387125 0  
0.14046866 -0.34602854 0  
0.34602854 0.14046866 0  
-0.14046866 0.34602854 0  
-0.34602854 -0.14046866 0  
-0.05869875 -0.16617337 0  
0.18217777 -0.061504476 0  
0.062312964 0.18362015 0  
-0.18362015 0.062312964 0  
-0.034321424 -0.38563195 0  
0.38563195 -0.034321424 0  
0.034321424 0.38563195 0  
-0.38563195 0.034321424 0  
0.39586002 -0.2428538 0  
0.2428538 0.39586002 0  
-0.39586002 0.2428538 0  
-0.2428538 -0.39586002 0  
0.23688246 -0.38952246 0  
0.38952246 0.23688246 0  
-0.23688246 0.38952246 0  
-0.38952246 -0.23688246 0  
-0.24287231 -0.09948847 0  
0.09948847 -0.24287231 0  
0.24287231 0.09948847 0  
-0.09948847 0.24287231 0  
-0.11560815 -0.24300627 0  
0.24300627 -0.11560815 0  
0.11560815 0.24300627 0  
-0.24300627 0.11560815 0  
-0.40192315 -0.4008276 0  
0.4008276 -0.40192315 0  
0.40192315 0.4008276 0  
-0.4008276 0.40192315 0  
0.06409326 -0.40289903 0  
0.40289903 0.06409326 0  
-0.06409326 0.40289903 0  
-0.40289903 -0.06409326 0  
0.2962961 -0.23982804 0  
0.23982804 0.2962961 0  
-0.2962961 0.23982804 0  
-0.23982804 -0.2962961 0  
-0.28087237 -0.21196799 0  
0.21196799 -0.28087237 0  
0.28087237 0.21196799 0  
-0.21196799 0.28087237 0  
-0.0901279 0.007867504 0  
-0.05002927 -0.07494272 0  
0.0873353 -0.009871756 0  
0.0071518295 0.09216282 0  
-0.14120433 -0.1484696 0  
-0.14581114 0.13960092 0  
0.1458264 -0.14505939 0  
0.13960092 0.14581114 0  
0.41838804 -0.3182741 0  
0.3182741 0.41838804 0  
-0.41838804 0.3182741 0  
-0.3182741 -0.41838804 0  
0.32118136 -0.41712493 0  
0.41712493 0.32118136 0  
-0.32118136 0.41712493 0  
-0.41712493 -0.32118136 0  
-0.19707234 -0.014843048 0  
0.018050108 -0.20183705 0  
0.19707234 0.014843048 0  
-0.014843048 0.19707234 0  
-0.10938372 -0.41847488 0  
0.41847488 -0.10938372 0  
0.10938372 0.41847488 0  
-0.41847488 0.10938372 0  
0.15773043 -0.4267032 0  
0.4267032 0.15773043 0  
-0.15773043 0.4267032 0  
-0.4267032 -0.15773043 0  
-0.3204562 -0.07174808 0  
0.07174808 -0.3204562 0  
0.3204562 0.07174808 0  
-0.07174808 0.3204562 0  
0.02801032 -0.07269879 0  
-0.31817523 0.069836795 0  
-0.069836795 -0.31817523 0  
0.31817523 -0.069836795 0  
0.069836795 0.31817523 0  
0.43106207 -0.17757268 0  
0.17757268 0.43106207 0  
-0.43106207 0.17757268 0  
-0.17757268 -0.43106207 0  
0.0703783 0.071201205 0  
-0.051593844 0.064346604 0  
0.099701226 -0.08333426 0  
0.2863281 -0.17248559 0  
0.17248559 0.2863281 0  
-0.2863281 0.17248559 0  
-0.17248559 -0.2863281 0  
-0.2341888 0.04979648 0  
-0.049194112 -0.231281 0  
0.23358595 -0.04946041 0  
0.04979648 0.2341888 0  
-0.009939441 -0.13691185 0  
-0.26560438 -0.17864102 0  
0.17864102 -0.26560438 0  
0.26560438 0.17864102 0  
-0.17864102 0.26560438 0  
0.013302229 -0.43510666 0  
0.43510666 0.013302229 0  
-0.013302229 0.43510666 0  
-0.43510666 -0.013302229 0  
0.09432827 0.114700764 0  
-0.11539384 0.093188405 0  
-0.3413634 -0.005100272 0  
0.005100272 -0.3413634 0  
0.3413634 0.005100272 0  
-0.005100272 0.3413634 0  
-0.19817708 -0.3508856 0  
0.3508856 -0.19817708 0  
0.19817708 0.3508856 0  
-0.3508856 0.19817708 0  
-0.34100306 -0.27216324 0  
0.27216324 -0.34100306 0  
0.34100306 0.27216324 0  
-0.27216324 0.34100306 0  
-0.20269383 -0.14403741 0  
0.14393912 -0.2028372 0  
0.2026342 0.14393856 0  
-0.14393856 0.2026342 0  
-0.1030633 -0.10524017 0  
-0.4394695 -0.104853734 0  
0.104853734 -0.4394695 0  
0.4394695 0.104853734 0  
-0.104853734 0.4394695 0  
-0.44156647 -0.44156647 0  
0.44156647 -0.44156647 0  
0.44156647 0.44156647 0  
-0.44156647 0.44156647 0  
-0.2683254 -0.44465622 0  
0.44465622 -0.2683254 0  
0.2683254 0.44465622 0  
-0.44465622 0.2683254 0  
0.2654342 -0.4435478 0  
0.4435478 0.2654342 0  
-0.2654342 0.4435478 0  
-0.4435478 -0.2654342 0  
-0.27373606 -0.34534052 0  
0.34534052 -0.27373606 0  
0.27373606 0.34534052 0  
-0.34534052 0.27373606 0  
-0.05307205 -0.4481981 0  
0.4481981 -0.05307205 0  
0.05307205 0.4481981 0  
-0.4481981 0.05307205 0  
-0.35614902 -0.19390328 0  
0.19390328 -0.35614902 0  
0.35614902 0.19390328 0  
-0.19390328 0.35614902 0  
-0.14022674 -0.012452113 0  
0.14171903 0.011271359 0  
-0.01125192 0.14089845 0  
-0.19556868 -0.06932378 0  
0.070511825 -0.19668652 0  
0.19556868 0.06932378 0  
-0.06932378 0.19556868 0  
-0.24951252 -0.039742906 0  
0.04037078 -0.2503529 0  
0.24951252 0.039742906 0  
-0.039742906 0.24951252 0  
0.44100407 -0.36164257 0  
0.36164257 0.44100407 0  
-0.44100407 0.36164257 0  
-0.36164257 -0.44100407 0  
-0.4451273 -0.36589316 0  
0.36589316 -0.4451273 0  
0.4451273 0.36589316 0  
-0.36589316 0.4451273 0  
0.1121834 -0.30242515 0  
0.30242515 0.1121834 0  
-0.1121834 0.30242515 0  
-0.30242515 -0.1121834 0  
-0.115146436 -0.19087775 0  
0.19190264 -0.11309679 0  
0.11520548 0.19263776 0  
-0.19263776 0.11520548 0  
-0.08287991 -0.37025127 0  
0.37025127 -0.08287991 0  
0.08287991 0.37025127 0  
-0.37025127 0.08287991 0  
0.23791528 -0.24381089 0  
0.24381089 0.23791528 0  
-0.23791528 0.24381089 0  
-0.24381089 -0.23791528 0  
-0.44626984 -0.21174923 0  
0.21174923 -0.44626984 0  
0.44626984 0.21174923 0  
-0.21174923 0.44626984 0  
0.35174853 -0.37705234 0  
0.37705234 0.35174853 0  
-0.35174853 0.37705234 0  
-0.37705234 -0.35174853 0  
-0.048605647 -0.023262763 0  
-0.1551113 -0.21381997 0  
0.21381997 -0.1551113 0  
0.1551113 0.21381997 0  
-0.21381997 0.1551113 0  
-0.29403278 -0.30027482 0  
0.30027482 -0.29403278 0  
0.29403278 0.30027482 0  
-0.30027482 0.29403278 0  
0.12173745 -0.390654 0  
0.390654 0.12173745 0  
-0.12173745 0.390654 0  
-0.390654 -0.12173745 0  
-0.12236246 -0.2979882 0  
0.2979882 -0.12236246 0  
0.12236246 0.2979882 0  
-0.2979882 0.12236246 0  
-0.0945969 -0.046371013 0  
0.035276897 -0.027358124 0  
-0.0076714605 0.051946 0  
-0.30809116 -0.17165439 0  
0.17165439 -0.30809116 0  
0.30809116 0.17165439 0  
-0.17165439 0.30809116 0  
-0.16592422 -0.10879113 0  
0.10700909 -0.1687818 0  
0.16864619 0.10664837 0  
-0.10664837 0.16864619 0  
-0.16784625 -0.38069874 0  
0.38069874 -0.16784625 0  
0.16784625 0.38069874 0  
-0.38069874 0.16784625 0  
-0.4563872 -0.05993889 0  
0.05993889 -0.4563872 0  
0.4563872 0.05993889 0  
-0.05993889 0.4563872 0  
0.31103167 -0.37412483 0  
0.37412483 0.31103167 0  
-0.31103167 0.37412483 0  
-0.37412483 -0.31103167 0  
-0.3909646 -0.012754724 0  
0.012754724 -0.3909646 0  
0.3909646 0.012754724 0  
-0.012754724 0.3909646 0  
0.44915667 -0.21679194 0  
0.21679194 0.44915667 0  
-0.44915667 0.21679194 0  
-0.21679194 -0.44915667 0  
0.045831423 0.12033131 0  
-0.12662303 0.045442794 0  
-0.3107799 -0.37355793 0  
0.37355793 -0.3107799 0  
0.3107799 0.37355793 0  
-0.37355793 0.3107799 0  
0.04152367 0.021693805 0  
-0.08040017 -0.2675595 0  
0.26794365 -0.08044455 0  
0.080500565 0.2680441 0  
-0.2680441 0.080500565 0  
-0.13753757 -0.45578164 0  
0.45578164 -0.13753757 0  
0.13753757 0.45578164 0  
-0.45578164 0.13753757 0  
-0.05507968 -0.12135967 0  
0.14172421 -0.09428923 0  
0.2571752 -0.19664502 0  
[...]
POINT_DATA 2173 
SCALARS T float 
LOOKUP_TABLE default 
1.6217564270577954e-19 
8.347732044031304e-26 
-3.781132834195188e-20 
5.7677470437113e-18 
-1.277274885699257e-18 
-1.8027471700865773e-18 
3.2830827467931377e-18 
-2.2397902385285307e-18 
2.8383179266238347e-19 
4.782126008316096e-18 
-6.100835402181669e-18 
2.627690824221586e-17 
-3.1159887879089967e-17 
2.7501699225573433e-17 
-1.1107309914802516e-17 
-7.003297777953677e-19 
-1.703063447724345e-18 
4.950323009612304e-19 
1.1758769720241328e-18 
1.6746804629720772e-20 
-1.2292583623205244e-20 
-3.0525418532577435e-20 
4.590681416143538e-21 
-2.0313619062326398e-20 
1.488944342832323e-20 
-1.0589291046923267e-20 
4.274104559622178e-22 
4.982859270650626e-23 
-5.27584352970695e-23 
-4.6585824371513264e-23 
-1.6789223181540543e-23 
-1.4791084461345202e-25 
2.8379868160998402e-24 
2.346964455755093e-24 
1.860740277788092e-25 
5.386410943497376e-25 
-5.345978954423785e-25 
9.662106139979864e-25 
3.737909697522076e-25 
-4.498502692038381e-26 
-2.096117077091273e-25 
5.678716439019822e-25 
3.9410424954437615e-25 
-2.7376059697228783e-25 
-1.2470875652921195e-24 
2.9538649911432106e-24 
-1.503297217031484e-24 
-4.297828049678769e-26 
-7.988916204963143e-24 
1.6679639931586285e-23 
-3.3037324479504034e-23 
3.799275224927247e-23 
1.413763546105009e-23 
-1.1540800111143145e-22 
4.527964129284822e-22 
-1.0378100922505036e-21 
3.006099826492078e-21 
-5.559124423663284e-21 
6.2955885265349385e-21 
-5.74706463520457e-21 
3.4419259023325895e-21 
3.9794184602605233e-22 
2.2724168134826317e-21 
-6.12003400221365e-21 
1.1847179364708107e-20 
-1.721529908492413e-20 
6.230260898334688e-20 
5.471376092209414e-20 
-6.856836377515418e-20 
1.4256546409816977e-19 
-1.928150329882331e-19 
2.2182678061978856e-19 
1.806320644947531e-19 
-8.37396272229714e-19 
6.355406097172975e-19 
-4.647879201132659e-19 
2.5056971148280475e-19 
1.2303477222803614e-19 
7.151526269635907e-20 
-8.109948065843156e-20 
3.911614681915829e-21 
-1.2700588926356322e-19 
8.185374124196468e-20 
3.556225180583443e-19 
-9.004040249050127e-19 
3.5225348093613017e-19 
1.3999687967239257e-20 
3.2506523231036984e-19 
1.3495624729537357e-18 
-1.081741564391398e-17 
2.687007231837583e-17 
-3.7468839089643534e-17 
3.787947437036493e-17 
-1.2921503181898822e-17 
-1.4236213036750786e-17 
5.293284854365939e-17 
-1.0321225879846556e-16 
1.0554594747584717e-16 
-8.799738015013584e-17 
1.9362415832968456e-17 
4.622541672982447e-17 
3.2812483281319235e-17 
-9.579710486949198e-17 
1.5947203290366672e-16 
-1.6656471224494335e-16 
2.2193415314756377e-16 
-5.699016778497819e-18 
-1.8408136655130278e-17 
1.6873239467551232e-16 
-2.6297467367097823e-16 
4.0270856103427623e-16 
-3.620730542828823e-16 
9.96575188972774e-17 
-1.4652955039119572e-16 
3.640883776991184e-17 
5.2258299735794553e-17 
3.17250988221322e-17 
4.3772964103985465e-17 
-3.238696634037048e-16 
1.1183029319055326e-16 
1.1953117099658024e-16 
-9.074578504540039e-17 
-1.5999545655722951e-16 
5.303281003388341e-16 
-3.4021010420756673e-16 
-6.244691258931219e-17 
-2.1030373250307428e-17 
9.686550833915289e-17 
-8.032314882417178e-17 
-1.387133579089599e-16 
-1.0862600207403279e-16 
7.833133771246023e-16 
-6.670588369463508e-16 
4.367434392640196e-16 
-1.8031523541350536e-15 
3.240274443389076e-15 
-1.789305275791636e-15 
-1.6009723034187917e-17 
-1.3502446041433978e-17 
1.3800719417115142e-15 
-2.448158046296058e-15 
2.1166570773643724e-15 
-1.2967846509736897e-15 
-7.167253413805653e-16 
2.4003401742877026e-15 
1.2224000949862707e-16 
7.254346921313949e-16 
2.750758140546868e-16 
9.176184983885746e-18 
3.6748541151862925e-16 
-4.897381087463043e-16 
-4.600445531857575e-16 
-5.511494791262426e-16 
-1.4558504543522222e-16 
-1.5678178347018877e-16 
-6.5198736977919515e-18 
3.155107256632283e-18 
6.4301032499118376e-18 
3.191211743007229e-18 
1.8658536038006874e-18 
-4.925424822754112e-7 
0.6002448820018167 
-3.1772455770331274e-11 
-2.9007612215906777e-6 
-0.0022289364624828506 
-0.0003629586829146024 
1.968615693893115e-5 
1.777257014480491e-8 
8.605136966163056e-5 
-1.0917602737446412e-11 
-1.1566302004265829e-6 
0.0001739478088790913 
-0.00030392998333352695 
0.03335564646767505 
5.308780907179802e-7 
-4.663315893062431e-7 
0.00010921366054855879 
0.0010534876708197323 
-3.0363846079047206e-10 
-2.8436201831377803e-5 
-0.0024987826221454547 
-3.2225595600911754e-9 
-2.0071237778109344e-7 
-0.0003838863039844685 
-0.0009057026294020722 
0.041883525583716524 
-7.245694894586744e-9 
2.0636612892901043e-5 
-0.0005157855384982227 
-3.5461091161951207e-6 
1.7913643565327937e-8 
5.212776514369592e-5 
-0.003074474383208427 
2.145473268515614e-10 
9.139492060281303e-6 
-0.001818712562165922 
8.835174341502383e-5 
3.4620241374295242e-12 
4.043417608028283e-7 
-0.00019651289866310477 
-0.001110558129712382 
0.0605084779328752 
-1.0009993837515423e-7 
-3.036754665165514e-8 
8.06917414820928e-5 
0.1711975386490339 
-4.223215754741755e-10 
-1.572816194311419e-5 
0.0013875756626542926 
3.6721013831985006e-5 
3.303961039405529e-12 
3.908253997656647e-7 
5.919945855994272e-5 
-4.890910766239434e-8 
1.0775635262506217e-8 
-3.766780118101183e-5 
-0.002717572208882366 
4.264718127189249e-12 
-1.2898154574745273e-6 
-0.0007584651801000378 
0.012597604532740557 
0.057518528933922834 
3.846452799405968e-11 
1.0716299815390442e-6 
-4.5030797351158326e-5 
0.0010470025108211115 
0.0018379509743295345 
-1.0922767162721642e-7 
-7.881305159927243e-5 
0.5645537915263564 
0.0015251971223750535 
1.469017492791355e-10 
-2.659174947800947e-6 
5.810889509393434e-12 
-6.951745104087652e-7 
-0.0002084051386077299 
-4.821736751534081e-5 
-9.536701942750135e-13 
-2.5256490483561985e-7 
-0.00010480730384481683 
-0.00043514604151513727 
-0.003153799564196692 
9.881396554293284e-5 
-7.078721101760447e-9 
-5.084677349979417e-5 
-4.661078234284416e-6 
2.2521892954909455e-9 
-9.681171239112815e-7 
-0.002239974533418942 
-3.5442510838972943e-10 
1.2553124908702635e-7 
8.329343068628141e-5 
0.0005868042080102715 
0.0016493170120037543 
-5.264733140349439e-8 
-7.633280309671014e-8 
-0.00023536818138205801 
3.4420882861476066e-6 
0.00039159725567233507 
0.0007527122730923733 
6.927814763848974e-10 
-1.8962223503534032e-5 
6.851265148839496e-10 
1.1951311401694672e-5 
-0.0026410848857315486 
-6.4276479148174055e-6 
-1.1774674371984475e-5 
9.291560560114094e-6 
-3.443938196138023e-9 
-5.327926439022169e-11 
-3.215486392221704e-6 
0.00030063947143712106 
0.06841147151688912 
-0.00047265688232934295 
0.014316952768032134 
3.063573586812377e-9 
2.2558371458888364e-5 
0.0009547315480758927 
0.1399648179740233 
-1.197445636346698e-10 
-1.91198317561042e-7 
-0.0006577836972964555 
-9.381933687085301e-8 
2.678453704581151e-9 
-7.514217606270659e-6 
-0.0012988432549866668 
7.0280237797661365e-6 
-0.0003206738874932543 
0.004446438933732212 
-2.4357259448410524e-6 
1.2871444955138543e-9 
-8.745634370020772e-5 
0.0007391773023576599 
-5.852770822306626e-11 
-1.6395171059029068e-5 
-0.0012906618417656416 
-0.0010911207025657184 
-5.886307788849193e-12 
-1.5215034665401034e-6 
-0.0007048951247905667 
0.587568062286577 
-5.0655441325157326e-11 
9.177222847439395e-7 
0.0003856294481884938 
0.07820762979183597 
0.0006873157342907592 
-6.027022149025732e-10 
2.211503780521723e-8 
8.57354307263981e-5 
-1.829417984923297e-6 
-2.935828106784162e-13 
7.158677504189943e-7 
-3.8255538946072834e-5 
1.7076425916429896e-5 
-6.122687744290815e-11 
2.041878485409683e-6 
0.00024203668671050747 
-2.7303589144291247e-14 
-3.7010984362393324e-7 
-0.0002169456627555822 
-0.0005270996919443958 
-0.0001281418161238245 
1.4145658945444383e-11 
-3.087626664316087e-6 
-0.00041677930795284876 
2.1277810196433617e-8 
3.88716889657912e-9 
5.899032044102288e-6 
0.0004444524220506324 
-0.0005822887495283598 
2.8297507574280067e-11 
3.6300444334933864e-8 
0.0004415949361560288 
-0.0011783744180108757 
2.1028300509761933e-7 
0.0001342536101960432 
0.042313929160691675 
4.3853296382463803e-7 
1.6707660894394528e-7 
-0.00042957578764493746 
0.017571286449252238 
-3.5714867707973753e-6 
9.151630922966065e-9 
-0.000231854717699616 
-2.932957148381887e-12 
2.839450058064584e-6 
-0.00028299802734752454 
4.715631559831548e-6 
-6.874833847217562e-5 
-1.956563946391603e-13 
2.7660182247862075e-7 
-0.000225976135219014 
-1.4672039082113405e-8 
2.492101987935066e-7 
9.09436012599654e-5 
-0.0003166486042386343 
0.40403754304320977 
-3.471512848991076e-10 
1.2419727064258065e-5 
0.002584154850175323 
-1.5578487261979926e-5 
-4.638384477351756e-10 
-6.114420461492519e-5 
0.0007161432561777969 
9.141321523943897e-13 
9.198729960255649e-7 
0.0010002851338794803 
0.13207933710531322 
7.197242045831193e-5 
4.512216475750366e-12 
-4.497449982323905e-8 
-3.7315599534817975e-5 
6.119834034585421e-12 
1.62649492633677e-6 
3.816223665330643e-5 
-3.0366939456780466e-5 
0.00010222134191251868 
0.6384196955089336 
4.028376501428057e-11 
7.967947382957925e-6 
0.003038750824623898 
0.000397471666362549 
-2.1712806030088694e-12 
-3.1855295843944755e-6 
-0.00042367993412302854 
-6.289368942022611e-9 
-1.718503058755046e-8 
-1.0369686793155835e-6 
-0.0035200051778245625 
0.021269492520404415 
5.526352344912908e-10 
-4.1463447953350234e-5 
-0.005580550073555085 
0.003350371216640017 
-4.0936125841314987e-7 
-7.725910564065337e-5 
0.014680812718238203 
-2.4271083784287894e-11 
2.6610958252720793e-7 
-0.00023468782837976536 
0.29797942985300435 
1.2001324405795244e-9 
7.102629444900934e-7 
0.00027784971086492616 
2.1338735838364705e-5 
1.4017177178325193e-10 
-1.0472131989366175e-7 
-0.0017126080573557545 
-0.001223329902980685 
-1.0061685604176468e-8 
1.1350580960774953e-9 
5.304553375549637e-5 
-1.4059186993784751e-12 
8.09878465577753e-7 
-0.000575475525412764 
-0.0005966508212693416 
0.0016597371200315876 
-5.566537663919167e-7 
5.192232889758854e-8 
0.00013356065933950502 
-5.089426565350318e-11 
-1.8561541046260217e-5 
-0.000559166285783326 
1.4167515199368698e-5 
2.1983040711771112e-5 
-0.0002690281677760121 
-0.00014855380341569576 
3.9736817650037145e-11 
1.550376801939778e-6 
-0.0003337289577685766 
8.968775163938169e-7 
0.021343785898302905 
6.007920921987867e-10 
-0.00010371012150154027 
-0.002134258518521726 
-2.756022551057763e-6 
2.112296426657137e-9 
4.6845607125555424e-6 
-0.0021279378377811846 
0.01508821207444217 
-3.422812312550074e-9 
-3.910173828378382e-11 
-9.767466096447826e-6 
-0.00047238356919684845 
0.1982450218165686 
-4.034665833702948e-8 
2.3300601164484804e-5 
-8.85038521243319e-5 
1.964434177621213e-11 
3.8170069862898705e-6 
-0.00034272815301365723 
-5.9642819575676165e-12 
8.00665352766575e-6 
-0.00012999032883470013 
2.810712892606141e-6 
3.045162343382568e-13 
2.670554242189291e-7 
-5.599773216119768e-5 
7.771436915187401e-5 
-1.8806157957351452e-6 
-0.0002299035776282672 
0.003946303873962284 
1.0669582236476059e-8 
-4.417621757941135e-8 
-0.00012440133888318348 
0.00011973066171158832 
-5.287781967804066e-9 
0.00018439348211361794 
0.0031436062180314594 
8.262038374055398e-9 
9.840828625820175e-5 
-0.005817784790588271 
0.0062255066942496955 
0.0005462051630355538 
4.7038970496660065e-9 
-0.00031968975133518055 
0.0003895684232498945 
-3.640852610113801e-11 
3.496697522795186e-8 
0.00011875348073178685 
1.0194190480165273e-7 
3.774514048662526e-5 
-1.4787116890011046e-9 
1.1464340717065055e-7 
-0.00023812846975896713 
0.0025023264709637194 
0.20104979978356485 
5.013290674385197e-11 
2.9718029929588e-6 
-0.0007345278624155662 
-8.584159331402146e-5 
0.0012622267003285267 
-1.932181205334256e-5 
1.8825183296317053e-9 
-6.887530137700542e-6 
-4.566250742687029e-8 
6.122955508505781e-9 
1.514339940849677e-5 
0.0001304107855523138 
-2.1931974824368915e-7 
5.2782210224332993e-8 
0.000156378565207643 
-0.0028701245806531848 
-0.006614457481960447 
-3.0385498223214785e-8 
1.3685924800516422e-7 
3.086467337441465e-5 
0.908161458062335 
2.2305837210128705e-5 
-9.50793900096994e-11 
-1.4523443142942741e-6 
-2.1498833466848132e-12 
-4.55693223094371e-7 
-0.0003244625091164895 
-0.0002333139614096168 
2.6765522786691973e-5 
-1.197541547499222e-10 
8.126634579301864e-6 
-0.000911342132831606 
-2.253291958140923e-8 
-1.0993123385941843e-9 
-5.9730767825259576e-5 
0.001862605073605001 
-0.0014949013409424384 
4.29540892080066e-11 
5.436967383961626e-9 
0.00025456753798267634 
-2.4346453100338636e-12 
8.274256871418987e-7 
-0.00029484151054081406 
-1.247035607612134e-6 
-1.2579357269716513e-13 
-5.508119497908362e-8 
-0.00015160145693849544 
7.250930133187296e-6 
-0.0021215384114516202 
0.0006006181330042224 
7.64475651262457e-9 
-9.032066911406559e-5 
-0.0027800228979002074 
1.1597820143879297e-8 
0.0004716769327679039 
-1.5022368324192072e-5 
-0.000772007146106524 
0.004888022500828116 
-1.6579664585025585e-6 
5.706093528744676e-10 
-0.00010928602597928873 
-0.0006501388839575542 
-4.2214629917150964e-7 
1.4451393422614203e-8 
8.888743435637581e-5 
-4.087307697377414e-9 
0.26658509816788234 
-5.2926257613408995e-11 
-2.261684138762064e-6 
-0.002606255754393927 
-1.1921526969018108e-9 
-5.148679014456585e-5 
0.001854706519922658 
5.264277563607514e-6 
-3.929644855439699e-5 
0.24229531090236744 
2.442645926416611e-10 
2.1003345373175482e-7 
-0.00026727960512667163 
-2.7254992108957794e-8 
-6.151180316443026e-9 
-8.873661607273932e-5 
-0.001993826152622409 
-1.2638951565689773e-10 
-4.129453964940874e-5 
-0.0015774498417222653 
0.23213347184414077 
1.8068503746536358e-6 
-0.00010465805520889086 
-7.61718435412752e-12 
-1.2136590230865705e-7 
-0.0003694330314785368 
0.008381309955925013 
0.0006619254912389955 
0.0011552383600334341 
-4.2773317376291366e-10 
-1.3304773437800808e-5 
0.0017433405629815812 
6.091787447808026e-12 
-6.048377619440535e-7 
0.0003686154383844926 
0.10395625345381809 
-3.1106195195221016e-10 
4.852387496374292e-5 
-0.006071824466448951 
-5.171942711600834e-11 
-5.725375979076892e-6 
-0.001116449694887364 
0.0005695416854137436 
4.058598792650064e-6 
-2.0829566629714785e-10 
-3.296862328015091e-5 
-1.010489367652638e-5 
0.006893361933908166 
-1.3404175711576867e-10 
-7.799745779841594e-6 
9.798273880875132e-5 
0.013588898513543715 
3.667579087450341e-11 
-1.2688571378207125e-6 
0.00022274420658361353 
-4.542568690632062e-6 
0.0008546571932281545 
2.2018991074480927e-11 
5.98234625322576e-8 
9.195746467446184e-6 
-0.00012557471326629947 
-2.4068222140771193e-6 
-7.23714512342051e-13 
3.3124558293737845e-7 
-0.00017813905498366558 
0.11417526669328862 
6.483667496427102e-10 
1.2892747009719892e-7 
-0.0003491200468461222 
0.003806381470498765 
-6.889637430306466e-9 
5.813279459779076e-5 
0.0005957621310125154 
1.5385289087145897e-5 
-1.019052891492131e-5 
-6.185695820856978e-10 
-4.056914809699786e-5 
-0.0009501321236118045 
0.0015432220678515101 
-9.849915896149892e-5 
9.903406498157583e-12 
2.5130939295382907e-6 
-2.8741082429887922e-5 
4.372898451136222e-11 
-7.621997562738155e-7 
-1.7242787632534194e-5 
0.5076692774505007 
-1.3889233066693974e-7 
1.6798782215014073e-8 
-2.853384176507515e-5 
0.0017777875573664105 
0.8360755318149763 
0.5656914373345376 
0.7260665660214087 
-1.1398466522669171e-11 
-1.2281452151434957e-10 
2.0058081334023029e-10 
3.352243685696656e-6 
-1.3848023224318016e-5 
-5.795755113348849e-7 
-0.0007168187289337481 
-0.0016115800472286193 
0.00021393621037898644 
0.008517752858855162 
0.013032796833793462 
0.03235629590326743 
-3.810927967827272e-9 
4.122390485776112e-9 
-3.561891563973034e-10 
-3.408524649014789e-5 
-2.478644674832702e-5 
1.4489082733134875e-5 
-0.0005806766732089529 
0.00760944134644353 
-0.004590789137079653 
0.8088335389979932 
0.552041970200466 
0.001575774983216305 
-0.00319057645728466 
-2.3712564160759114e-10 
1.5128378602057738e-10 
3.2954283365425455e-6 
-4.629414004815756e-6 
0.001703677375104839 
0.004996893636598098 
0.044519512329153715 
0.08290998757697934 
-1.6661209156117142e-9 
3.0450090987957464e-9 
-5.322572399264345e-5 
2.40383937012382e-6 
7.5407538683462855e-6 
-1.683978064448332e-5 
1.311936043423685e-6 
0.12416091007645899 
0.18372068228099142 
0.06863826143453422 
0.2574156587076765 
0.47020051178584843 
-3.723112468063416e-5 
-2.7803705154013344e-5 
5.905084117164323e-5 
5.188164563027339e-11 
1.012452640475149e-10 
-2.6141686544574174e-10 
-6.558800006014054e-7 
8.738996766352249e-6 
-1.190878380491805e-5 
-0.0002782865634119483 
-0.00043639276059684144 
0.0016387408902086987 
1.0275119410553357e-5 
-1.68890834024913e-6 
-3.203979228372748e-13 
2.1575515033938252e-14 
-7.447967750076516e-8 
-3.761868030850545e-8 
-1.3432321297037403e-6 
-2.222714776140616e-5 
2.8910090997837444e-6 
-1.3986135237573951e-6 
2.7117546139141875e-12 
-1.197125004349707e-12 
-6.541610608826984e-7 
3.027996641881517e-7 
0.00024503246014339074 
-0.00020648805994359426 
0.0006544862793969816 
0.0018678241979894648 
-0.004814765231209726 
0.00015411480695273457 
-1.3279223617518787e-5 
-5.899667783034245e-6 
-1.4574077836166142e-8 
1.6116561989738862e-9 
2.539188683314025e-9 
4.907253898326107e-5 
-5.281064419076399e-7 
-9.177065894568039e-7 
1.7067996915646263e-11 
2.111149314841601e-11 
-1.2606915001011687e-11 
9.56229812175894e-6 
-7.088878942565664e-6 
-4.565496686560015e-6 
-0.00010834120685841733 
5.228774188886933e-5 
-1.2082183790825307e-5 
-1.2461840589345319e-5 
-5.46512862604464e-6 
1.1800969433917094e-5 
-1.6781859861211017e-13 
-4.2099176710903014e-13 
5.209770802937995e-15 
-3.211773907297674e-7 
-2.1861148337280255e-8 
3.415660821083653e-7 
5.8402756571725944e-5 
6.965000473913079e-5 
-3.6125547348250556e-5 
0.00021688503719563649 
-8.27863442916988e-6 
0.00024369484851292385 
1.469504511603782e-5 
-8.12673295823876e-12 
-1.549830284424672e-5 
5.399398449619051e-6 
-9.491855035943554e-13 
-8.069244814398115e-8 
0.00013886504419583626 
0.00022100138751590822 
3.181203042147085e-12 
-1.5716254833266703e-12 
2.685577818981196e-7 
-8.95904774363718e-8 
5.579887079044396e-5 
-0.00017041468983191931 
-0.00015005645716804016 
-0.00017132248746137008 
-0.0007564499013289755 
0.004110879787039977 
-0.00019626684795924712 
0.00010220417299527827 
3.519017001720356e-5 
-1.7902902666039599e-13 
9.022867318776161e-13 
-1.1784458040324051e-7 
7.161624862442464e-8 
-6.584844764374158e-5 
0.00013730287717248033 
-3.906677081521536e-7 
7.965875511414056e-6 
-6.884699034013902e-12 
3.959707664350992e-12 
1.6200743847106797e-6 
-1.6322084961266434e-6 
-0.0003606094114152563 
0.0002665570659303844 
0.0009761891678663219 
-0.0037265491888031368 
8.524138765635277e-5 
-6.402716807411309e-6 
-3.6747085346557707e-9 
1.0200406605655847e-9 
-1.4542415570172928e-5 
6.956804421907179e-5 
-0.0009803135739706887 
0.00015620889756953247 
0.001553661549672041 
-1.928136523093916e-12 
3.580246322598958e-12 
3.3113048807394083e-12 
-5.927886690459969e-7 
1.3736121128451622e-6 
-2.1151918465301982e-8 
-0.0004186018939856102 
0.00017453587213501627 
0.0007791977107251476 
-3.186221074784698e-5 
2.873806297567815e-5 
-1.445944584390557e-5 
-9.952700115599544e-5 
6.237267261637049e-10 
-1.94670254038582e-10 
2.9050791741834137e-5 
2.9402945485211834e-6 
-0.002141991264648684 
0.001330731103955903 
1.2701871138207196e-9 
2.671279747598038e-9 
-3.753821284788505e-10 
-1.7222262377895518e-10 
2.201527027811021e-8 
-6.981931416584119e-8 
7.357034454820239e-5 
-6.341707648167674e-5 
-0.00012784700050873208 
0.0014771897021461488 
0.00043854040832246537 
-0.0017715390241504923 
7.734438240017774e-13 
-1.3159191391167704e-11 
1.1705711287891632e-11 
1.0276006371452498e-6 
-2.874104574829162e-6 
5.380509133219534e-7 
-0.0002790960474158587 
0.0002819977909464195 
3.2363431105638763e-6 
0.00017034053020789923 
-2.9065889928763243e-5 
0.00015545177854706498 
-0.0002626854356608816 
0.0007120220751762522 
5.603441773215992e-13 
-2.0303611002334952e-12 
-4.099797202649763e-7 
-7.837601068611153e-7 
-0.00011070799518472136 
0.0005423575111976449 
0.0029535177769720216 
0.01908441119118833 
0.01601739433617732 
0.010548250802264241 