# vtk DataFile Version 3.0 
Unstructured Grid 
ASCII 
DATASET UNSTRUCTURED_GRID
POINTS 2173 float 
-0.5 -0.5 0  
0.5 -0.5 0  
0.5 0.5 0  
-0.5 0.5 0  
-0.475 -0.5 0  
-0.45 -0.5 0  
-0.425 -0.5 0  
-0.4 -0.5 0  
-0.375 -0.5 0  
-0.35 -0.5 0  
-0.325 -0.5 0  
-0.3 -0.5 0  
-0.275 -0.5 0  
-0.25 -0.5 0  
-0.225 -0.5 0  
-0.2 -0.5 0  
-0.175 -0.5 0  
-0.15 -0.5 0  
-0.125 -0.5 0  
-0.1 -0.5 0  
-0.075 -0.5 0  
-0.05 -0.5 0  
-0.025 -0.5 0  
-1.3761214e-12 -0.5 0  
0.025 -0.5 0  
0.05 -0.5 0  
0.075 -0.5 0  
0.1 -0.5 0  
0.125 -0.5 0  
0.15 -0.5 0  
0.175 -0.5 0  
0.2 -0.5 0  
0.225 -0.5 0  
0.25 -0.5 0  
0.275 -0.5 0  
0.3 -0.5 0  
0.325 -0.5 0  
0.35 -0.5 0  
0.375 -0.5 0  
0.4 -0.5 0  
0.425 -0.5 0  
0.45 -0.5 0  
0.475 -0.5 0  
0.5 -0.475 0  
0.5 -0.45 0  
0.5 -0.425 0  
0.5 -0.4 0  
0.5 -0.375 0  
0.5 -0.35 0  
0.5 -0.325 0  
0.5 -0.3 0  
0.5 -0.275 0  
0.5 -0.25 0  
0.5 -0.225 0  
0.5 -0.2 0  
0.5 -0.175 0  
0.5 -0.15 0  
0.5 -0.125 0  
0.5 -0.1 0  
0.5 -0.075 0  
0.5 -0.05 0  
0.5 -0.025 0  
0.5 -1.3761214e-12 0  
0.5 0.025 0  
0.5 0.05 0  
0.5 0.075 0  
0.5 0.1 0  
0.5 0.125 0  
0.5 0.15 0  
0.5 0.175 0  
0.5 0.2 0  
0.5 0.225 0  
0.5 0.25 0  
0.5 0.275 0  
0.5 0.3 0  
0.5 0.325 0  
0.5 0.35 0  
0.5 0.375 0  
0.5 0.4 0  
0.5 0.425 0  
0.5 0.45 0  
0.5 0.475 0  
0.475 0.5 0  
0.45 0.5 0  
0.425 0.5 0  
0.4 0.5 0  
0.375 0.5 0  
0.35 0.5 0  
0.325 0.5 0  
0.3 0.5 0  
0.275 0.5 0  
0.25 0.5 0  
0.225 0.5 0  
0.2 0.5 0  
0.175 0.5 0  
0.15 0.5 0  
0.125 0.5 0  
0.1 0.5 0  
0.075 0.5 0  
0.05 0.5 0  
0.025 0.5 0  
1.3761214e-12 0.5 0  
-0.025 0.5 0  
-0.05 0.5 0  
-0.075 0.5 0  
-0.1 0.5 0  
-0.125 0.5 0  
-0.15 0.5 0  
-0.175 0.5 0  
-0.2 0.5 0  
-0.225 0.5 0  
-0.25 0.5 0  
-0.275 0.5 0  
-0.3 0.5 0  
-0.325 0.5 0  
-0.35 0.5 0  
-0.375 0.5 0  
-0.4 0.5 0  
-0.425 0.5 0  
-0.45 0.5 0  
-0.475 0.5 0  
-0.5 0.475 0  
-0.5 0.45 0  
-0.5 0.425 0  
-0.5 0.4 0  
-0.5 0.375 0  
-0.5 0.35 0  
-0.5 0.325 0  
-0.5 0.3 0  
-0.5 0.275 0  
-0.5 0.25 0  
-0.5 0.225 0  
-0.5 0.2 0  
-0.5 0.175 0  
-0.5 0.15 0  
-0.5 0.125 0  
-0.5 0.1 0  
-0.5 0.075 0  
-0.5 0.05 0  
-0.5 0.025 0  
-0.5 1.3761214e-12 0  
-0.5 -0.025 0  
-0.5 -0.05 0  
-0.5 -0.075 0  
-0.5 -0.1 0  
-0.5 -0.125 0  
-0.5 -0.15 0  
-0.5 -0.175 0  
-0.5 -0.2 0  
-0.5 -0.225 0  
-0.5 -0.25 0  
-0.5 -0.275 0  
-0.5 -0.3 0  
-0.5 -0.325 0  
-0.5 -0.35 0  
-0.5 -0.375 0  
-0.5 -0.4 0  
-0.5 -0.425 0  
-0.5 -0.45 0  
-0.5 -0.475 0  
-0.002115384 -0.00023065208 0  
-0.20714286 -0.20714286 0  
0.20714286 -0.20714286 0  
0.20714286 0.20714286 0  
-0.20714286 0.20714286 0  
-0.28155318 -0.0017231192 0  
0.0017231192 -0.28155318 0  
0.28155318 0.0017231192 0  
-0.0017231192 0.28155318 0  
0.3319978 -0.33098683 0  
0.33098683 0.3319978 0  
-0.3319978 0.33098683 0  
-0.33098683 -0.3319978 0  
-0.14015679 -0.06698606 0  
0.06698606 -0.14015679 0  
0.14015679 0.06698606 0  
-0.06698606 0.14015679 0  
-0.1387125 -0.34573975 0  
0.34573975 -0.1387125 0  
0.1387125 0.34573975 0  
-0.34573975 0.1387125 0  
0.14046866 -0.34602854 0  
0.34602854 0.14046866 0  
-0.14046866 0.34602854 0  
-0.34602854 -0.14046866 0  
-0.05869875 -0.16617337 0  
0.18217777 -0.061504476 0  
0.062312964 0.18362015 0  
-0.18362015 0.062312964 0  
-0.034321424 -0.38563195 0  
0.38563195 -0.034321424 0  
0.034321424 0.38563195 0  
-0.38563195 0.034321424 0  
0.39586002 -0.2428538 0  
0.2428538 0.39586002 0  
-0.39586002 0.2428538 0  
-0.2428538 -0.39586002 0  
0.23688246 -0.38952246 0  
0.38952246 0.23688246 0  
-0.23688246 0.38952246 0  
-0.38952246 -0.23688246 0  
-0.24287231 -0.09948847 0  
0.09948847 -0.24287231 0  
0.24287231 0.09948847 0  
-0.09948847 0.24287231 0  
-0.11560815 -0.24300627 0  
0.24300627 -0.11560815 0  
0.11560815 0.24300627 0  
-0.24300627 0.11560815 0  
-0.40192315 -0.4008276 0  
0.4008276 -0.40192315 0  
0.40192315 0.4008276 0  
-0.4008276 0.40192315 0  
0.06409326 -0.40289903 0  
0.40289903 0.06409326 0  
-0.06409326 0.40289903 0  
-0.40289903 -0.06409326 0  
0.2962961 -0.23982804 0  
0.23982804 0.2962961 0  
-0.2962961 0.23982804 0  
-0.23982804 -0.2962961 0  
-0.28087237 -0.21196799 0  
0.21196799 -0.28087237 0  
0.28087237 0.21196799 0  
-0.21196799 0.28087237 0  
-0.0901279 0.007867504 0  
-0.05002927 -0.07494272 0  
0.0873353 -0.009871756 0  
0.0071518295 0.09216282 0  
-0.14120433 -0.1484696 0  
-0.14581114 0.13960092 0  
0.1458264 -0.14505939 0  
0.13960092 0.14581114 0  
0.41838804 -0.3182741 0  
0.3182741 0.41838804 0  
-0.41838804 0.3182741 0  
-0.3182741 -0.41838804 0  
0.32118136 -0.41712493 0  
0.41712493 0.32118136 0  
-0.32118136 0.41712493 0  
-0.41712493 -0.32118136 0  
-0.19707234 -0.014843048 0  
0.018050108 -0.20183705 0  
0.19707234 0.014843048 0  
-0.014843048 0.19707234 0  
-0.10938372 -0.41847488 0  
0.41847488 -0.10938372 0  
0.10938372 0.41847488 0  
-0.41847488 0.10938372 0  
0.15773043 -0.4267032 0  
0.4267032 0.15773043 0  
-0.15773043 0.4267032 0  
-0.4267032 -0.15773043 0  
-0.3204562 -0.07174808 0  
0.07174808 -0.3204562 0  
0.3204562 0.07174808 0  
-0.07174808 0.3204562 0  
0.02801032 -0.07269879 0  
-0.31817523 0.069836795 0  
-0.069836795 -0.31817523 0  
0.31817523 -0.069836795 0  
0.069836795 0.31817523 0  
0.43106207 -0.17757268 0  
0.17757268 0.43106207 0  
-0.43106207 0.17757268 0  
-0.17757268 -0.43106207 0  
0.0703783 0.071201205 0  
-0.051593844 0.064346604 0  
0.099701226 -0.08333426 0  
0.2863281 -0.17248559 0  
0.17248559 0.2863281 0  
-0.2863281 0.17248559 0  
-0.17248559 -0.2863281 0  
-0.2341888 0.04979648 0  
-0.049194112 -0.231281 0  
0.23358595 -0.04946041 0  
0.04979648 0.2341888 0  
-0.009939441 -0.13691185 0  
-0.26560438 -0.17864102 0  
0.17864102 -0.26560438 0  
0.26560438 0.17864102 0  
-0.17864102 0.26560438 0  
0.013302229 -0.43510666 0  
0.43510666 0.013302229 0  
-0.013302229 0.43510666 0  
-0.43510666 -0.013302229 0  
0.09432827 0.114700764 0  
-0.11539384 0.093188405 0  
-0.3413634 -0.005100272 0  
0.005100272 -0.3413634 0  
0.3413634 0.005100272 0  
-0.005100272 0.3413634 0  
-0.19817708 -0.3508856 0  
0.3508856 -0.19817708 0  
0.19817708 0.3508856 0  
-0.3508856 0.19817708 0  
-0.34100306 -0.27216324 0  
0.27216324 -0.34100306 0  
0.34100306 0.27216324 0  
-0.27216324 0.34100306 0  
-0.20269383 -0.14403741 0  
0.14393912 -0.2028372 0  
0.2026342 0.14393856 0  
-0.14393856 0.2026342 0  
-0.1030633 -0.10524017 0  
-0.4394695 -0.104853734 0  
0.104853734 -0.4394695 0  
0.4394695 0.104853734 0  
-0.104853734 0.4394695 0  
-0.44156647 -0.44156647 0  
0.44156647 -0.44156647 0  
0.44156647 0.44156647 0  
-0.44156647 0.44156647 0  
-0.2683254 -0.44465622 0  
0.44465622 -0.2683254 0  
0.2683254 0.44465622 0  
-0.44465622 0.2683254 0  
0.2654342 -0.4435478 0  
0.4435478 0.2654342 0  
-0.2654342 0.4435478 0  
-0.4435478 -0.2654342 0  
-0.27373606 -0.34534052 0  
0.34534052 -0.27373606 0  
0.27373606 0.34534052 0  
-0.34534052 0.27373606 0  
-0.05307205 -0.4481981 0  
0.4481981 -0.05307205 0  
0.05307205 0.4481981 0  
-0.4481981 0.05307205 0  
-0.35614902 -0.19390328 0  
0.19390328 -0.35614902 0  
0.35614902 0.19390328 0  
-0.19390328 0.35614902 0  
-0.14022674 -0.012452113 0  
0.14171903 0.011271359 0  
-0.01125192 0.14089845 0  
-0.19556868 -0.06932378 0  
0.070511825 -0.19668652 0  
0.19556868 0.06932378 0  
-0.06932378 0.19556868 0  
-0.24951252 -0.039742906 0  
0.04037078 -0.2503529 0  
0.24951252 0.039742906 0  
-0.039742906 0.24951252 0  
0.44100407 -0.36164257 0  
0.36164257 0.44100407 0  
-0.44100407 0.36164257 0  
-0.36164257 -0.44100407 0  
-0.4451273 -0.36589316 0  
0.36589316 -0.4451273 0  
0.4451273 0.36589316 0  
-0.36589316 0.4451273 0  
0.1121834 -0.30242515 0  
0.30242515 0.1121834 0  
-0.1121834 0.30242515 0  
-0.30242515 -0.1121834 0  
-0.115146436 -0.19087775 0  
0.19190264 -0.11309679 0  
0.11520548 0.19263776 0  
-0.19263776 0.11520548 0  
-0.08287991 -0.37025127 0  
0.37025127 -0.08287991 0  
0.08287991 0.37025127 0  
-0.37025127 0.08287991 0  
0.23791528 -0.24381089 0  
0.24381089 0.23791528 0  
-0.23791528 0.24381089 0  
-0.24381089 -0.23791528 0  
-0.44626984 -0.21174923 0  
0.21174923 -0.44626984 0  
0.44626984 0.21174923 0  
-0.21174923 0.44626984 0  
0.35174853 -0.37705234 0  
0.37705234 0.35174853 0  
-0.35174853 0.37705234 0  
-0.37705234 -0.35174853 0  
-0.048605647 -0.023262763 0  
-0.1551113 -0.21381997 0  
0.21381997 -0.1551113 0  
0.1551113 0.21381997 0  
-0.21381997 0.1551113 0  
-0.29403278 -0.30027482 0  
0.30027482 -0.29403278 0  
0.29403278 0.30027482 0  
-0.30027482 0.29403278 0  
0.12173745 -0.390654 0  
0.390654 0.12173745 0  
-0.12173745 0.390654 0  
-0.390654 -0.12173745 0  
-0.12236246 -0.2979882 0  
0.2979882 -0.12236246 0  
0.12236246 0.2979882 0  
-0.2979882 0.12236246 0  
-0.0945969 -0.046371013 0  
0.035276897 -0.027358124 0  
-0.0076714605 0.051946 0  
-0.30809116 -0.17165439 0  
0.17165439 -0.30809116 0  
0.30809116 0.17165439 0  
-0.17165439 0.30809116 0  
-0.16592422 -0.10879113 0  
0.10700909 -0.1687818 0  
0.16864619 0.10664837 0  
-0.10664837 0.16864619 0  
-0.16784625 -0.38069874 0  
0.38069874 -0.16784625 0  
0.16784625 0.38069874 0  
-0.38069874 0.16784625 0  
-0.4563872 -0.05993889 0  
0.05993889 -0.4563872 0  
0.4563872 0.05993889 0  
-0.05993889 0.4563872 0  
0.31103167 -0.37412483 0  
0.37412483 0.31103167 0  
-0.31103167 0.37412483 0  
-0.37412483 -0.31103167 0  
-0.3909646 -0.012754724 0  
0.012754724 -0.3909646 0  
0.3909646 0.012754724 0  
-0.012754724 0.3909646 0  
0.44915667 -0.21679194 0  
0.21679194 0.44915667 0  
-0.44915667 0.21679194 0  
-0.21679194 -0.44915667 0  
0.045831423 0.12033131 0  
-0.12662303 0.045442794 0  
-0.3107799 -0.37355793 0  
0.37355793 -0.3107799 0  
0.3107799 0.37355793 0  
-0.37355793 0.3107799 0  
0.04152367 0.021693805 0  
-0.08040017 -0.2675595 0  
0.26794365 -0.08044455 0  
0.080500565 0.2680441 0  
-0.2680441 0.080500565 0  
-0.13753757 -0.45578164 0  
0.45578164 -0.13753757 0  
0.13753757 0.45578164 0  
-0.45578164 0.13753757 0  
-0.05507968 -0.12135967 0  
0.14172421 -0.09428923 0  
0.2571752 -0.19664502 0  
[...]
POINT_DATA 2173 
SCALARS T float 
LOOKUP_TABLE default 
-3.82956829998707e-18 
-5.7750023191859885e-18 
-3.631873906765066e-20 
-2.0174764239162865e-19 
-7.056642441010199e-17 
5.871800886730138e-17 
2.5649135712092056e-18 
1.8090971523110673e-16 
2.476854663317503e-17 
-9.192584389145563e-17 
-1.399548988240987e-16 
1.5749725722719503e-16 
-1.386439732831422e-16 
1.5323035034920073e-16 
-1.689073365825633e-16 
2.260327399166196e-16 
-4.469167269912096e-16 
3.3436120073178525e-17 
3.4925717857192663e-16 
-9.131946516657237e-16 
8.581228098717343e-16 
-2.2781185084622826e-16 
-8.601236828359612e-16 
6.668313414429053e-16 
-4.58191546700949e-16 
3.981722383160697e-16 
-1.031085534851582e-16 
5.172449429237697e-16 
-4.844477829265604e-16 
7.139893589978276e-16 
-8.851586854116078e-16 
5.841077910893961e-16 
-1.502046318112528e-15 
7.465790013566314e-16 
1.1309156920398226e-15 
1.4369597121084239e-15 
3.9189052132137624e-17 
1.14731428016122e-15 
3.172068820460955e-16 
-4.8561953949145433e-17 
4.247388698993188e-16 
-2.1544837407258953e-17 
-2.324267375994367e-16 
1.9576547899493096e-16 
6.518223616550858e-17 
-6.757036230909854e-16 
3.006018331065654e-16 
1.4563564200785387e-16 
2.46694331765671e-16 
6.307003682828486e-16 
4.946917906706174e-16 
1.1741794666843064e-15 
-7.45780663868646e-16 
5.321620316597406e-16 
7.306962492162428e-17 
2.120938749766771e-16 
1.7713662543409706e-16 
-1.4461370800567312e-16 
2.567470644918772e-16 
-1.4539739790459597e-16 
8.101793149262865e-17 
6.788874086084697e-17 
-1.4250802337143944e-16 
1.2120638001696824e-16 
-9.006986221755162e-17 
8.707026846567881e-18 
3.1026689646729253e-18 
-4.589452433254119e-18 
-7.023526239752881e-19 
-2.844374106904206e-18 
-4.0252787957673417e-19 
7.18181225520357e-19 
3.8331356842006e-19 
1.3776953320804443e-18 
2.5430925538348797e-18 
2.6119745591587286e-18 
2.3782392069130655e-18 
1.5618505370372847e-18 
-1.2106697571230636e-18 
6.954271333958669e-18 
-9.542973012681761e-19 
2.2362007592614884e-19 
-5.717941482912635e-19 
9.511633206224712e-19 
-7.760201001424662e-18 
2.9903307333950914e-18 
-2.2682336953937286e-18 
-3.472271005730447e-18 
-1.4111125841503658e-18 
1.4363107369152365e-17 
3.4989113708340105e-18 
5.3936571024088575e-18 
-1.989483715678291e-18 
3.4534496790296087e-18 
5.374629851263542e-18 
-2.955487770570463e-18 
1.7215997311183642e-17 
-1.4175490078552675e-17 
1.4498358506937482e-17 
-6.202881672929243e-18 
-1.429425032501092e-18 
-7.427772017715158e-18 
1.2612320014966235e-17 
-1.7653213392103734e-17 
1.6214496490861292e-17 
-1.6348702258474123e-17 
7.178018385227312e-18 
-6.2947438076548575e-18 
7.033101710228265e-18 
-1.79180395592874e-18 
-4.75471354779064e-18 
1.3864534851817351e-17 
-3.5677003290874605e-18 
-3.3840552183044074e-17 
-2.29400928069504e-17 
-2.911305090627019e-17 
-3.2019407873469946e-17 
-2.300226592149807e-17 
-4.972454753817091e-18 
-1.0070824261714971e-17 
7.828519950553623e-19 
-3.3905817727903614e-19 
1.6916549073175523e-17 
1.0979695137758328e-17 
4.879361671252739e-17 
5.663353386324366e-17 
3.147685524600416e-17 
-1.4859306423333773e-17 
-2.6759159920772665e-17 
-5.982486881704976e-17 
1.6295431700214232e-17 
-3.534357776204476e-17 
1.0296482905369164e-17 
5.3623773365122445e-17 
-5.485914327244508e-17 
1.0044855153283714e-16 
-1.4613768470015517e-16 
1.2380248534653388e-16 
-4.110145245761729e-17 
-8.154106634977695e-17 
1.0854852159673651e-17 
3.270136790853879e-17 
-5.80765189501458e-17 
7.453858045117112e-17 
-3.5529028686208964e-17 
-1.7411459520595679e-16 
1.178053915940963e-16 
-5.2699696877983106e-17 
-9.19517120735038e-17 
3.82645965756018e-17 
-4.1686519116859305e-17 
-2.5901015954928295e-16 
-8.180514687067845e-17 
-1.5458770590986076e-16 
-8.382675958798355e-17 
-1.194556201853001e-17 
6.226585676622022e-17 
8.537863774676734e-17 
5.141742605267314e-17 
7.238747984667039e-17 
1.5343741499931588e-6 
0.0008498517117224908 
0.01120905101191691 
-2.0961170078249242e-6 
-2.1400017582044163e-5 
4.514062671226828e-6 
0.00033123021157872894 
0.27893877203903966 
-4.16176075158635e-6 
3.7916057490201206e-5 
-1.0519624624672236e-6 
9.20963043548464e-6 
-1.759578258530233e-5 
0.00025130076046803006 
-0.0007827564313291506 
0.004768484977921235 
3.052634136022926e-5 
-7.240145987969617e-5 
0.02881182065881608 
-1.9040637942431246e-6 
2.417745266646051e-5 
0.0017911059859809523 
-4.486892550383239e-5 
1.6128805013493497e-5 
-7.411300292812107e-5 
-6.724353314135994e-5 
0.3738929134665878 
-4.589535189807632e-6 
9.506653540654226e-5 
-0.0005378321803920443 
0.011282459412774242 
3.211290731525688e-6 
-3.279861066321775e-5 
-0.001594083958438376 
1.261472055428601e-6 
-2.124051630096744e-5 
-2.115426845704638e-5 
0.0006086395057879946 
2.0231315295309692e-7 
-1.0124426442941353e-5 
-4.28884031784846e-5 
-3.604693334691789e-5 
2.3522796133848933e-5 
0.007949205860197884 
-2.126387884029225e-6 
-0.0010193073279737852 
0.4434391636022622 
-8.712522626242933e-7 
3.478126338848133e-5 
0.00018420064306313565 
0.0009587127057563635 
-3.602493177005973e-6 
-8.770103550089141e-6 
0.00017147472228930846 
-0.00015040375326977505 
7.060287431108159e-8 
-2.083533272744156e-5 
0.0009824676432645773 
-1.896607100037931e-7 
-1.534381637253897e-5 
0.00044994690280125867 
0.00041444660408043217 
0.002883761378762427 
-1.993116605139286e-6 
-3.156699793566168e-5 
0.00013689109305203742 
-0.00047842864787725687 
0.004261460087968556 
-7.770691105078098e-6 
-0.0005984555074778205 
5.461432206703345e-5 
0.03529133246988023 
-1.527013439257794e-5 
0.0003466269063333915 
-4.424453840438951e-6 
2.60399797863406e-6 
2.26974823526594e-5 
0.0011097730482972122 
5.261989752448385e-7 
-3.952796817631494e-5 
8.293645599922877e-5 
-8.456055515476843e-5 
-0.000554655383677197 
0.1827295402337478 
1.7235118064825101e-6 
-0.0005581872425876696 
0.0005618906505720702 
-1.0485692272337058e-6 
-2.4392086039720307e-5 
0.0010822068002187336 
-6.287273174150893e-6 
6.332802991584985e-6 
-5.019429905536037e-5 
-1.0482451737595304e-5 
-0.0006535907061420363 
0.010924329113007768 
2.038318357547996e-5 
0.0004023774672149427 
5.916934797742957e-5 
-0.000922662162763401 
0.24070961572020697 
2.7022138104107585e-6 
-0.0005883138204571515 
-2.2015326855644715e-6 
-3.044126067479794e-5 
-0.00021045653592315918 
2.849373355466723e-5 
8.962016059241126e-6 
0.007331325778220363 
0.045735713475375236 
7.12493124452807e-7 
1.9041327651954924e-5 
-0.0009124639233608677 
1.848418844661124e-5 
-0.0003665938783253547 
0.7082918235475043 
-5.375273375445409e-6 
0.00011049867602497092 
0.00035163178744734684 
0.00040252494700006357 
-2.073250666310722e-5 
-3.091092295715688e-6 
-0.00017580828056092154 
-0.0002490536968386234 
8.220820359204414e-6 
-4.4368063634210713e-5 
-3.4868363813722383e-6 
5.4833760813362e-5 
-9.625975919015204e-7 
-0.0016099922348013001 
0.056630504341454786 
-1.514710145584218e-7 
-8.83119609931214e-6 
0.0023559575389907276 
-1.828091399297405e-6 
-1.3497635085998711e-5 
8.931169592208286e-6 
0.0010762207064358002 
-2.624221577076106e-6 
-3.7420093558119595e-6 
-0.0003022860070628157 
-0.0003973877854173825 
0.00011478113102582743 
-8.007592407333339e-6 
-0.0003539399859526527 
-3.479716960021179e-5 
0.000288891400483597 
-9.974636480094063e-6 
-4.802348821655931e-6 
9.647828799461413e-5 
0.000391354235113123 
-2.340255853557911e-6 
7.271172208391998e-7 
1.1105470094567263e-7 
-0.0005386824044372156 
-2.1861848022244723e-6 
2.564492155587021e-5 
0.0016454651335161663 
1.075862140327472e-6 
8.492718240993173e-6 
-7.088541964979808e-5 
0.00015547056235369765 
0.00023703828607836552 
-1.9990164773045306e-6 
1.496012360119679e-5 
-0.0004259006308665019 
8.660779114745304e-5 
2.1922180145028156e-6 
-5.337273573616682e-5 
0.00037214703540937717 
0.0007506001755155328 
-2.217387851811258e-6 
-1.096762805150139e-5 
-0.00027180092203476174 
0.04036578145422419 
1.008900725874118e-5 
3.055793750088481e-5 
-0.0008023363787663607 
0.023240371758807596 
3.830460234297199e-6 
8.823742109565848e-5 
0.0004181103384787478 
0.13006853548180977 
1.1658367676835797e-7 
0.0009091869339024289 
-1.9991463243261974e-6 
-3.0146805534996853e-6 
-3.875561507221602e-5 
0.00022658056058980845 
0.0007809236348796273 
-3.068662051699031e-6 
1.5815354615307218e-6 
-0.0001779867346704961 
0.0013640590644599542 
-3.939929294706792e-6 
0.00019195191970143482 
-0.00036632961496215133 
0.28387168418201625 
-1.2991346552790535e-6 
-6.586329446149785e-6 
-0.0005599220324249731 
0.02670182570107941 
-1.9965381293445124e-6 
5.550722313615268e-5 
-0.004680028268631551 
3.1127756053951616e-6 
1.25235393441685e-5 
-0.0005482617543555473 
-1.8278453110148608e-5 
0.0005655536355375369 
1.682494623293346e-6 
6.548449708882301e-6 
-0.0004457006343983365 
-3.711209491774779e-7 
1.252529206954492e-6 
2.2667233593948013e-5 
0.00011974517098539534 
0.0003737632787671305 
0.12428841340561932 
4.555369595548282e-7 
-6.754426870685952e-6 
0.00024114232547885547 
-0.0010703119408044524 
-9.61455971015284e-7 
1.5417949825955607e-5 
0.0002681978597256505 
-9.239347948881983e-5 
-2.8333495076678234e-7 
2.492602709557249e-6 
0.0003116338444309273 
0.19091833133438177 
-1.707841763872125e-6 
2.6140047644766513e-5 
-0.0007159087358775131 
0.00015759749762226118 
3.08221550244574e-6 
0.0002724390043141373 
0.0015135624331609095 
-2.746302761518695e-5 
-1.572218039610977e-5 
6.594133320546364e-5 
0.004596126593996868 
0.0010901484762019429 
7.076523027858325e-6 
0.00018987814910358914 
0.001868165176706536 
-7.755163799900779e-7 
-1.6777403773523425e-5 
-2.1695543090136727e-5 
-0.00011422424057596788 
-7.831051885076082e-5 
-6.0362437281968845e-6 
0.0009476737264049757 
1.2850273339799497e-6 
-4.682535465057086e-6 
-9.77342165805203e-5 
7.461603404153425e-5 
-0.00098794798219572 
0.0030000617656648168 
-6.781962420083213e-6 
-0.00033361115358169157 
1.2037983202938148e-6 
4.824827043506614e-5 
-0.0002732670818525935 
-2.0402428173249605e-6 
0.0001471240825605397 
0.00019236698483760965 
-3.5444003288052144e-5 
-2.0298798657899903e-6 
1.557151922221645e-5 
2.4253801748061333e-5 
0.0008346568290738022 
0.6101222614352754 
-2.9368505564262207e-7 
5.311637612805149e-5 
0.0003723254355305199 
6.840526497696109e-5 
-1.2754509778522613e-6 
2.7962206052004663e-5 
-0.00010168940797352526 
0.08086361194036848 
0.021105227310804425 
-1.1000189039153958e-6 
-2.350177325256158e-5 
0.0003775326104548187 
0.04569380434210437 
6.330602261950187e-5 
-0.00013162672982370836 
-0.00010849580923094264 
-4.4015241898362274e-7 
1.4382426704085945e-6 
0.00030089284276923 
2.6460729687995446e-6 
-1.5326437073611585e-5 
-3.483593073604038e-5 
-0.00023512609473036464 
-1.5861406011836301e-6 
-4.843733638160255e-7 
0.00018163072307470908 
0.002114015957670584 
-1.0064985721888134e-5 
-2.1925714119108246e-5 
-0.0014868981516133735 
0.02474686049257193 
1.4067663949755778e-5 
2.7631199366101875e-5 
0.008983709754965515 
0.0002499001064531385 
0.0004442341765612898 
0.4251222702597021 
-1.2216080274139226e-6 
0.0002546208595122516 
6.16841847461878e-5 
0.0001358001561110842 
0.43867657573179214 
1.6294951751613223e-6 
0.00015425536221523288 
0.0009405186431398881 
-6.746854350445915e-7 
5.287465076984627e-6 
-0.0032416621905620056 
0.0014682222760536332 
0.003212346932071658 
-3.150514828918056e-5 
-9.370967356438139e-6 
6.634803119848972e-5 
0.0009238733976003329 
0.0009916727763399503 
-3.2300713509415388e-6 
2.523775715204339e-6 
-4.324302244594617e-5 
9.762747350246739e-7 
0.0010188395331082178 
0.0980571813435652 
-3.911481470140066e-6 
3.6333039807164644e-5 
0.0002663143865583778 
-5.486031332770159e-6 
-3.821844610975856e-6 
-0.0007483995300977454 
0.009113685792768328 
-7.763766332753684e-6 
-0.00012346969849719763 
0.00026439550693092964 
0.0010021309895145577 
0.0005965469934894612 
2.874666799219969e-6 
0.0001726358797575472 
1.2299685899136239e-6 
0.034544913018574194 
-1.1788154608455966e-5 
0.0004764192183840938 
2.3029106062373506e-8 
1.9936004987362522e-6 
-9.858711051615449e-5 
-9.347326565106121e-5 
0.008096784585377995 
-2.8125575667112337e-6 
1.0128217565761167e-5 
-6.641159790819592e-5 
1.2068434543422362e-5 
8.475759440318548e-6 
4.8289051637239065e-5 
0.00022285882348437445 
0.000213564884034574 
2.2482860070363008e-6 
6.438100468037642e-6 
0.00032657356099471285 
2.4579752358951796e-6 
1.5576291789151273e-6 
6.784642255832558e-5 
7.386630879213444e-5 
2.394069951220376e-6 
-1.5191484138276649e-6 
0.00010171244294139013 
7.33450733765304e-5 
0.0009758692946735156 
0.45055287332104893 
-1.947691404073988e-6 
-0.00012222513427345304 
0.04083814188210104 
9.848108157538208e-6 
1.477150462058298e-6 
-7.344521382693564e-6 
2.362314700463148e-5 
0.00019643232640076662 
0.06290083759298087 
-2.0738424468503554e-6 
-7.779457566205646e-5 
-0.00042852369667390334 
0.0026511289868719127 
-1.2582076185802837e-5 
0.002147123567054332 
0.0002102788630011402 
0.004689958603718662 
-6.275935315950454e-6 
-1.6942933993563623e-5 
-0.00023082868434959016 
6.669089263600362e-6 
2.3256231087288698e-5 
0.0002870130182693067 
-2.1148429937012413e-6 
-0.0005822861370616512 
-0.0016967114770894383 
0.003257172269162366 
3.476493060464716e-5 
4.810565016947992e-5 
-0.00014056856960053833 
8.751356698180475e-6 
7.071114850060716e-5 
0.14419792085326952 
-4.03619838785788e-6 
2.3141206122999532e-5 
-0.0003396366696905277 
0.0003127544879483318 
2.724335829991384e-5 
-0.0010310471460822327 
-2.6131534033355887e-7 
1.5862996238831392e-6 
-0.00024608518462409824 
3.443465903111716e-6 
-0.0001452944753069663 
0.08732658500647981 
-6.709611162953393e-6 
0.00014319518009918807 
-0.0009278199638251669 
-1.4299316064073955e-6 
1.785138603052246e-5 
0.0015595879473194736 
0.6341366145677453 
-5.748976054191607e-6 
3.485460211112673e-5 
-0.001197434180165094 
-1.5167982714083567e-6 
8.806110955709193e-6 
0.00018257902275536255 
-0.00028235641614363143 
-9.697290328420242e-5 
5.465684552210517e-7 
5.193531375618968e-5 
0.00026085027710883417 
0.023574932891515788 
-2.8018571931915754e-6 
-2.2310665980585317e-5 
-0.00030838360327997894 
0.004526192598376301 
1.9006580105411357e-6 
2.927913503832148e-6 
0.00026329471744437606 
-2.460203103399407e-5 
-0.0005911442169716248 
-4.0682724556387646e-7 
1.0878462082540019e-5 
-0.0001473228146551474 
2.9364138042189667e-5 
0.00024904255211371764 
1.7146319849926034e-6 
3.182764080051354e-6 
-0.0005148907388320202 
-0.0007458308194365359 
0.0001681641891841023 
-5.7249432493433115e-6 
9.635438240326507e-5 
0.18873050764098206 
-4.264661139051951e-6 
-7.85399809802451e-6 
-0.0013239906318652326 
7.71552482715316e-6 
-0.0005984106019189425 
-6.753383683150407e-7 
9.349470656741028e-5 
0.0007291008464994023 
0.000281576202412278 
0.0004198978811747155 
-3.539099625686477e-7 
-7.747901902879097e-6 
0.005766165238752607 
-1.7640667309639045e-5 
2.6135005728391e-5 
8.180631549890858e-6 
-0.00016852325837744578 
0.0009074964927605083 
-2.485654818652881e-6 
4.071332269209042e-5 
-0.00019352630209373394 
-0.0004896562489698079 
3.691213027395764e-6 
0.05166718868288013 
0.21584296670484052 
0.10793083515586907 
-2.7842961751273996e-6 
8.437159694137273e-7 
3.6862411769077393e-7 
-1.012210207980654e-5 
2.255627899342497e-5 
-8.947608288318012e-6 
0.000739170313172135 
-0.0011663454077122575 
0.0004949946408254578 
0.587033334500014 
0.42771928823612293 
0.5782309575743524 
5.415437234026383e-6 
-1.4538267423040835e-6 
2.048185862386693e-6 
-1.6503857446226456e-5 
5.5387930700242775e-5 
-6.0608356204819055e-6 
-0.0008344604204698103 
0.001271875770190284 
-3.0579173739272216e-5 
4.218488703865063e-5 
0.02904378890606952 
0.10861819309168974 
-1.3736528235860988e-5 
-2.0572986442004198e-6 
1.5266440771098117e-5 
-5.694585535431069e-5 
-0.00011522159487766938 
-0.0006746282984178068 
0.6939532957274095 
0.5421713581056701 
4.865630568563834e-6 
1.408190192732148e-6 
2.515922932823965e-6 
-1.6228737273962207e-6 
-1.4028212391561253e-6 
-6.252813809078079e-5 
7.526928372597032e-5 
1.3965476434594052e-5 
0.0004244680460364555 
-0.00022472432780691522 
-0.0001362324970555503 
-4.8658393011982544e-5 
0.00016522379326453757 
0.0006764951246187028 
0.0005052327185011626 
-0.0006009199328153468 
-1.3002384724333485e-6 
-1.773975729192989e-6 
-5.223561668143578e-7 
1.2397283970912642e-5 
1.1678203425249416e-5 
-9.325663202531287e-6 
0.0001451603298686274 
-4.621082121498504e-5 
-0.0004296955886148415 
2.5657915786219087e-5 
-3.272914944312988e-6 
6.828948083232633e-7 
1.5430322686004127e-5 
1.3333128280199698e-5 
-0.00012417985818128271 
0.00011695181135057361 
-0.00011536978110216094 
0.00016945677358364277 
-4.668850019814597e-6 
1.5817784974471515e-6 
1.5377722798546966e-5 
2.7576198221616355e-5 
-0.00014920267874585504 
-7.162355006484762e-6 
6.443577751625371e-5 
0.00018935940358837344 
0.0005056379272346942 
0.000591354581294718 
0.37891480665420857 
0.18842236632373568 
0.15309615825685008 
2.2641310651818207e-6 
-5.294921939322669e-6 
3.3013181669256466e-6 
0.0005413994684600739 
-0.0002477296352446701 
0.00026115127912109873 
2.2254954265272673e-6 
-3.7207739801871257e-6 
5.890095334109078e-6 
-2.709241451497003e-5 
5.536697783772173e-6 
-1.1655449422363575e-5 
-5.149832548412911e-5 
3.5557847262546242e-6 
6.830812784834627e-5 
-0.0005693557204179625 
0.0002673692133821059 
-0.000605296607690196 
-1.6996978428831193e-6 
-2.73784057011176e-7 
-9.275113799107939e-7 
1.6915071276455586e-5 
-1.696366137273678e-5 
1.8781758799421494e-6 
5.297234380797306e-5 
-1.838201806760557e-5 
0.00013677555159197672 
5.298900967861409e-5 
-0.0003745661903862192 
2.660561263406998e-6 
2.738345325670714e-6 
-0.00020139570201623217 
-4.5878158122695713e-7 
-5.89501872900051e-6 
4.7106884416377196e-5 
0.000265239263321492 
0.0008372570494228371 
1.3870266811116253e-6 
-2.8231245137976917e-7 
1.017182563945473e-5 
3.881233805819423e-6 
0.000133848539798258 
1.1511400955850214e-5 
2.342245884257699e-6 
0.00044377241981115073 
0.00010662677971435342 
-6.671559657646726e-5 
4.2130646227863205e-5 
-0.0002534339381482537 
0.00013310502224586572 
2.6751314437891127e-6 
9.639660197102083e-9 
6.64393441044147e-6 
8.401503231901431e-6 
0.00014548053338375722 
9.021978522245486e-5 
0.0004717711444103837 
-0.00020050473237040743 
3.965129658920136e-6 
1.1316015657101121e-6 
4.422095699230009e-6 
-8.143816941237231e-6 
1.1332257363523467e-5 
-3.9703156496112296e-5 
-0.002235932237817137 
0.0006537887906011873 
0.2441688972074465 
0.08603081209752468 
4.4272181999457e-6 
3.912070886435438e-6 
-3.99387901972578e-6 
-2.6634967555989707e-5 
2.5289242401666537e-5 
0.0013724279710845136 
-0.00037732416170619743 
-0.0007686875216855312 
1.3219746733487207e-7 
1.6817004352829318e-6 
-1.0745186431862086e-6 
1.2828254830434105e-5 
-4.2652414689469866e-6 
-8.484469026934049e-6 
2.676254948531551e-6 
3.824432872734443e-7 
-3.636046096910353e-5 
-4.1937831986504845e-5 
-0.0003191231451345225 
0.0013821027224692375 
-1.4856352812423202e-6 
-9.556210522844402e-7 
-3.7456289139069616e-5 
-1.834131602831785e-5 
0.000485165324411792 
-0.000313374680705243 
-0.0006792513062466273 
1.2005319649628894e-5 
1.607106997639184e-5 
-2.7488827631350902e-6 
-1.1863859790151044e-5 
1.33845322411579e-5 
1.0165048403208354e-6 
4.8609112482336225e-5 
-8.810944154264955e-5 
4.695849938016657e-5 
0.00016213389890208665 
4.2513616862955265e-5 
-0.00013574638693764752 
4.007000394057951e-7 
-2.574883220518576e-6 
-7.476019517709353e-7 
7.470355242784042e-6 
-1.0648688068075666e-5 
5.564181448360926e-6 
-0.00025228600674574313 
-4.786297895990313e-5 
0.0001576701210686399 
0.00026249230544991435 
-0.00019799178810652094 
0.0006261795096990535 
-0.0003103184055707688 
5.643759009788008e-7 
-6.327416302733999e-7 
-5.40444494010091e-6 
1.5060212840009451e-5 
0.0007856664685199992 
0.0008550562269219948 
-0.000695181791568438 
-0.00053814918475397 
-0.00027846965234191876 
0.0006527205149578853 
-4.7622742942077326e-6 
2.3249660132300796e-6 
-6.463167950215021e-6 
6.195523602010581e-6 