# vtk DataFile Version 3.0 
Unstructured Grid 
ASCII 
DATASET UNSTRUCTURED_GRID
POINTS 2173 float 
-0.5 -0.5 0  
0.5 -0.5 0  
0.5 0.5 0  
-0.5 0.5 0  
-0.475 -0.5 0  
-0.45 -0.5 0  
-0.425 -0.5 0  
-0.4 -0.5 0  
-0.375 -0.5 0  
-0.35 -0.5 0  
-0.325 -0.5 0  
-0.3 -0.5 0  
-0.275 -0.5 0  
-0.25 -0.5 0  
-0.225 -0.5 0  
-0.2 -0.5 0  
-0.175 -0.5 0  
-0.15 -0.5 0  
-0.125 -0.5 0  
-0.1 -0.5 0  
-0.075 -0.5 0  
-0.05 -0.5 0  
-0.025 -0.5 0  
-1.3761214e-12 -0.5 0  
0.025 -0.5 0  
0.05 -0.5 0  
0.075 -0.5 0  
0.1 -0.5 0  
0.125 -0.5 0  
0.15 -0.5 0  
0.175 -0.5 0  
0.2 -0.5 0  
0.225 -0.5 0  
0.25 -0.5 0  
0.275 -0.5 0  
0.3 -0.5 0  
0.325 -0.5 0  
0.35 -0.5 0  
0.375 -0.5 0  
0.4 -0.5 0  
0.425 -0.5 0  
0.45 -0.5 0  
0.475 -0.5 0  
0.5 -0.475 0  
0.5 -0.45 0  
0.5 -0.425 0  
0.5 -0.4 0  
0.5 -0.375 0  
0.5 -0.35 0  
0.5 -0.325 0  
0.5 -0.3 0  
0.5 -0.275 0  
0.5 -0.25 0  
0.5 -0.225 0  
0.5 -0.2 0  
0.5 -0.175 0  
0.5 -0.15 0  
0.5 -0.125 0  
0.5 -0.1 0  
0.5 -0.075 0  
0.5 -0.05 0  
0.5 -0.025 0  
0.5 -1.3761214e-12 0  
0.5 0.025 0  
0.5 0.05 0  
0.5 0.075 0  
0.5 0.1 0  
0.5 0.125 0  
0.5 0.15 0  
0.5 0.175 0  
0.5 0.2 0  
0.5 0.225 0  
0.5 0.25 0  
0.5 0.275 0  
0.5 0.3 0  
0.5 0.325 0  
0.5 0.35 0  
0.5 0.375 0  
0.5 0.4 0  
0.5 0.425 0  
0.5 0.45 0  
0.5 0.475 0  
0.475 0.5 0  
0.45 0.5 0  
0.425 0.5 0  
0.4 0.5 0  
0.375 0.5 0  
0.35 0.5 0  
0.325 0.5 0  
0.3 0.5 0  
0.275 0.5 0  
0.25 0.5 0  
0.225 0.5 0  
0.2 0.5 0  
0.175 0.5 0  
0.15 0.5 0  
0.125 0.5 0  
0.1 0.5 0  
0.075 0.5 0  
0.05 0.5 0  
0.025 0.5 0  
1.3761214e-12 0.5 0  
-0.025 0.5 0  
-0.05 0.5 0  
-0.075 0.5 0  
-0.1 0.5 0  
-0.125 0.5 0  
-0.15 0.5 0  
-0.175 0.5 0  
-0.2 0.5 0  
-0.225 0.5 0  
-0.25 0.5 0  
-0.275 0.5 0  
-0.3 0.5 0  
-0.325 0.5 0  
-0.35 0.5 0  
-0.375 0.5 0  
-0.4 0.5 0  
-0.425 0.5 0  
-0.45 0.5 0  
-0.475 0.5 0  
-0.5 0.475 0  
-0.5 0.45 0  
-0.5 0.425 0  
-0.5 0.4 0  
-0.5 0.375 0  
-0.5 0.35 0  
-0.5 0.325 0  
-0.5 0.3 0  
-0.5 0.275 0  
-0.5 0.25 0  
-0.5 0.225 0  
-0.5 0.2 0  
-0.5 0.175 0  
-0.5 0.15 0  
-0.5 0.125 0  
-0.5 0.1 0  
-0.5 0.075 0  
-0.5 0.05 0  
-0.5 0.025 0  
-0.5 1.3761214e-12 0  
-0.5 -0.025 0  
-0.5 -0.05 0  
-0.5 -0.075 0  
-0.5 -0.1 0  
-0.5 -0.125 0  
-0.5 -0.15 0  
-0.5 -0.175 0  
-0.5 -0.2 0  
-0.5 -0.225 0  
-0.5 -0.25 0  
-0.5 -0.275 0  
-0.5 -0.3 0  
-0.5 -0.325 0  
-0.5 -0.35 0  
-0.5 -0.375 0  
-0.5 -0.4 0  
-0.5 -0.425 0  
-0.5 -0.45 0  
-0.5 -0.475 0  
-0.002115384 -0.00023065208 0  
-0.20714286 -0.20714286 0  
0.20714286 -0.20714286 0  
0.20714286 0.20714286 0  
-0.20714286 0.20714286 0  
-0.28155318 -0.0017231192 0  
0.0017231192 -0.28155318 0  
0.28155318 0.0017231192 0  
-0.0017231192 0.28155318 0  
0.3319978 -0.33098683 0  
0.33098683 0.3319978 0  
-0.3319978 0.33098683 0  
-0.33098683 -0.3319978 0  
-0.14015679 -0.06698606 0  
0.06698606 -0.14015679 0  
0.14015679 0.06698606 0  
-0.06698606 0.14015679 0  
-0.1387125 -0.34573975 0  
0.34573975 -0.1387125 0  
0.1387125 0.34573975 0  
-0.34573975 0.1387125 0  
0.14046866 -0.34602854 0  
0.34602854 0.14046866 0  
-0.14046866 0.34602854 0  
-0.34602854 -0.14046866 0  
-0.05869875 -0.16617337 0  
0.18217777 -0.061504476 0  
0.062312964 0.18362015 0  
-0.18362015 0.062312964 0  
-0.034321424 -0.38563195 0  
0.38563195 -0.034321424 0  
0.034321424 0.38563195 0  
-0.38563195 0.034321424 0  
0.39586002 -0.2428538 0  
0.2428538 0.39586002 0  
-0.39586002 0.2428538 0  
-0.2428538 -0.39586002 0  
0.23688246 -0.38952246 0  
0.38952246 0.23688246 0  
-0.23688246 0.38952246 0  
-0.38952246 -0.23688246 0  
-0.24287231 -0.09948847 0  
0.09948847 -0.24287231 0  
0.24287231 0.09948847 0  
-0.09948847 0.24287231 0  
-0.11560815 -0.24300627 0  
0.24300627 -0.11560815 0  
0.11560815 0.24300627 0  
-0.24300627 0.11560815 0  
-0.40192315 -0.4008276 0  
0.4008276 -0.40192315 0  
0.40192315 0.4008276 0  
-0.4008276 0.40192315 0  
0.06409326 -0.40289903 0  
0.40289903 0.06409326 0  
-0.06409326 0.40289903 0  
-0.40289903 -0.06409326 0  
0.2962961 -0.23982804 0  
0.23982804 0.2962961 0  
-0.2962961 0.23982804 0  
-0.23982804 -0.2962961 0  
-0.28087237 -0.21196799 0  
0.21196799 -0.28087237 0  
0.28087237 0.21196799 0  
-0.21196799 0.28087237 0  
-0.0901279 0.007867504 0  
-0.05002927 -0.07494272 0  
0.0873353 -0.009871756 0  
0.0071518295 0.09216282 0  
-0.14120433 -0.1484696 0  
-0.14581114 0.13960092 0  
0.1458264 -0.14505939 0  
0.13960092 0.14581114 0  
0.41838804 -0.3182741 0  
0.3182741 0.41838804 0  
-0.41838804 0.3182741 0  
-0.3182741 -0.41838804 0  
0.32118136 -0.41712493 0  
0.41712493 0.32118136 0  
-0.32118136 0.41712493 0  
-0.41712493 -0.32118136 0  
-0.19707234 -0.014843048 0  
0.018050108 -0.20183705 0  
0.19707234 0.014843048 0  
-0.014843048 0.19707234 0  
-0.10938372 -0.41847488 0  
0.41847488 -0.10938372 0  
0.10938372 0.41847488 0  
-0.41847488 0.10938372 0  
0.15773043 -0.4267032 0  
0.4267032 0.15773043 0  
-0.15773043 0.4267032 0  
-0.4267032 -0.15773043 0  
-0.3204562 -0.07174808 0  
0.07174808 -0.3204562 0  
0.3204562 0.07174808 0  
-0.07174808 0.3204562 0  
0.02801032 -0.07269879 0  
-0.31817523 0.069836795 0  
-0.069836795 -0.31817523 0  
0.31817523 -0.069836795 0  
0.069836795 0.31817523 0  
0.43106207 -0.17757268 0  
0.17757268 0.43106207 0  
-0.43106207 0.17757268 0  
-0.17757268 -0.43106207 0  
0.0703783 0.071201205 0  
-0.051593844 0.064346604 0  
0.099701226 -0.08333426 0  
0.2863281 -0.17248559 0  
0.17248559 0.2863281 0  
-0.2863281 0.17248559 0  
-0.17248559 -0.2863281 0  
-0.2341888 0.04979648 0  
-0.049194112 -0.231281 0  
0.23358595 -0.04946041 0  
0.04979648 0.2341888 0  
-0.009939441 -0.13691185 0  
-0.26560438 -0.17864102 0  
0.17864102 -0.26560438 0  
0.26560438 0.17864102 0  
-0.17864102 0.26560438 0  
0.013302229 -0.43510666 0  
0.43510666 0.013302229 0  
-0.013302229 0.43510666 0  
-0.43510666 -0.013302229 0  
0.09432827 0.114700764 0  
-0.11539384 0.093188405 0  
-0.3413634 -0.005100272 0  
0.005100272 -0.3413634 0  
0.3413634 0.005100272 0  
-0.005100272 0.3413634 0  
-0.19817708 -0.3508856 0  
0.3508856 -0.19817708 0  
0.19817708 0.3508856 0  
-0.3508856 0.19817708 0  
-0.34100306 -0.27216324 0  
0.27216324 -0.34100306 0  
0.34100306 0.27216324 0  
-0.27216324 0.34100306 0  
-0.20269383 -0.14403741 0  
0.14393912 -0.2028372 0  
0.2026342 0.14393856 0  
-0.14393856 0.2026342 0  
-0.1030633 -0.10524017 0  
-0.4394695 -0.104853734 0  
0.104853734 -0.4394695 0  
0.4394695 0.104853734 0  
-0.104853734 0.4394695 0  
-0.44156647 -0.44156647 0  
0.44156647 -0.44156647 0  
0.44156647 0.44156647 0  
-0.44156647 0.44156647 0  
-0.2683254 -0.44465622 0  
0.44465622 -0.2683254 0  
0.2683254 0.44465622 0  
-0.44465622 0.2683254 0  
0.2654342 -0.4435478 0  
0.4435478 0.2654342 0  
-0.2654342 0.4435478 0  
-0.4435478 -0.2654342 0  
-0.27373606 -0.34534052 0  
0.34534052 -0.27373606 0  
0.27373606 0.34534052 0  
-0.34534052 0.27373606 0  
-0.05307205 -0.4481981 0  
0.4481981 -0.05307205 0  
0.05307205 0.4481981 0  
-0.4481981 0.05307205 0  
-0.35614902 -0.19390328 0  
0.19390328 -0.35614902 0  
0.35614902 0.19390328 0  
-0.19390328 0.35614902 0  
-0.14022674 -0.012452113 0  
0.14171903 0.011271359 0  
-0.01125192 0.14089845 0  
-0.19556868 -0.06932378 0  
0.070511825 -0.19668652 0  
0.19556868 0.06932378 0  
-0.06932378 0.19556868 0  
-0.24951252 -0.039742906 0  
0.04037078 -0.2503529 0  
0.24951252 0.039742906 0  
-0.039742906 0.24951252 0  
0.44100407 -0.36164257 0  
0.36164257 0.44100407 0  
-0.44100407 0.36164257 0  
-0.36164257 -0.44100407 0  
-0.4451273 -0.36589316 0  
0.36589316 -0.4451273 0  
0.4451273 0.36589316 0  
-0.36589316 0.4451273 0  
0.1121834 -0.30242515 0  
0.30242515 0.1121834 0  
-0.1121834 0.30242515 0  
-0.30242515 -0.1121834 0  
-0.115146436 -0.19087775 0  
0.19190264 -0.11309679 0  
0.11520548 0.19263776 0  
-0.19263776 0.11520548 0  
-0.08287991 -0.37025127 0  
0.37025127 -0.08287991 0  
0.08287991 0.37025127 0  
-0.37025127 0.08287991 0  
0.23791528 -0.24381089 0  
0.24381089 0.23791528 0  
-0.23791528 0.24381089 0  
-0.24381089 -0.23791528 0  
-0.44626984 -0.21174923 0  
0.21174923 -0.44626984 0  
0.44626984 0.21174923 0  
-0.21174923 0.44626984 0  
0.35174853 -0.37705234 0  
0.37705234 0.35174853 0  
-0.35174853 0.37705234 0  
-0.37705234 -0.35174853 0  
-0.048605647 -0.023262763 0  
-0.1551113 -0.21381997 0  
0.21381997 -0.1551113 0  
0.1551113 0.21381997 0  
-0.21381997 0.1551113 0  
-0.29403278 -0.30027482 0  
0.30027482 -0.29403278 0  
0.29403278 0.30027482 0  
-0.30027482 0.29403278 0  
0.12173745 -0.390654 0  
0.390654 0.12173745 0  
-0.12173745 0.390654 0  
-0.390654 -0.12173745 0  
-0.12236246 -0.2979882 0  
0.2979882 -0.12236246 0  
0.12236246 0.2979882 0  
-0.2979882 0.12236246 0  
-0.0945969 -0.046371013 0  
0.035276897 -0.027358124 0  
-0.0076714605 0.051946 0  
-0.30809116 -0.17165439 0  
0.17165439 -0.30809116 0  
0.30809116 0.17165439 0  
-0.17165439 0.30809116 0  
-0.16592422 -0.10879113 0  
0.10700909 -0.1687818 0  
0.16864619 0.10664837 0  
-0.10664837 0.16864619 0  
-0.16784625 -0.38069874 0  
0.38069874 -0.16784625 0  
0.16784625 0.38069874 0  
-0.38069874 0.16784625 0  
-0.4563872 -0.05993889 0  
0.05993889 -0.4563872 0  
0.4563872 0.05993889 0  
-0.05993889 0.4563872 0  
0.31103167 -0.37412483 0  
0.37412483 0.31103167 0  
-0.31103167 0.37412483 0  
-0.37412483 -0.31103167 0  
-0.3909646 -0.012754724 0  
0.012754724 -0.3909646 0  
0.3909646 0.012754724 0  
-0.012754724 0.3909646 0  
0.44915667 -0.21679194 0  
0.21679194 0.44915667 0  
-0.44915667 0.21679194 0  
-0.21679194 -0.44915667 0  
0.045831423 0.12033131 0  
-0.12662303 0.045442794 0  
-0.3107799 -0.37355793 0  
0.37355793 -0.3107799 0  
0.3107799 0.37355793 0  
-0.37355793 0.3107799 0  
0.04152367 0.021693805 0  
-0.08040017 -0.2675595 0  
0.26794365 -0.08044455 0  
0.080500565 0.2680441 0  
-0.2680441 0.080500565 0  
-0.13753757 -0.45578164 0  
0.45578164 -0.13753757 0  
0.13753757 0.45578164 0  
-0.45578164 0.13753757 0  
-0.05507968 -0.12135967 0  
0.14172421 -0.09428923 0  
0.2571752 -0.19664502 0  
[...]
POINT_DATA 2173 
SCALARS T float 
LOOKUP_TABLE default 
-1.717895344789942e-18 
-4.959393105976984e-18 
-2.8008431204889676e-20 
-2.169159797869902e-19 
-1.7269072201507753e-17 
1.7684269676786394e-17 
-1.4126446812578562e-16 
1.1389549816665275e-16 
9.267077268334406e-17 
4.5165699852584496e-17 
-8.221919560517689e-17 
-1.3435455757960967e-16 
8.379325028832709e-17 
-1.4159587478180273e-16 
2.2999378607566093e-16 
-1.9833986430963207e-17 
1.9882465743003146e-16 
5.1716357096071584e-17 
-1.1107956956365572e-16 
1.0314432297563933e-17 
-2.0878383597531637e-17 
7.821742475293144e-17 
-1.4861268833542845e-16 
6.76552100782214e-17 
-6.623640368595083e-18 
-3.5177234387511077e-19 
-1.1915378749506701e-16 
1.5270770834862522e-16 
2.693856005393376e-16 
3.830587386201876e-16 
-4.018695908740248e-16 
8.703910645706729e-16 
-1.0063999794083829e-15 
2.687280239605397e-16 
1.4731336413361015e-16 
1.5482261447625272e-15 
-1.8154543184526975e-16 
1.133418317595253e-15 
9.520455093283207e-17 
-2.3508497742141063e-16 
9.612017576854944e-17 
-1.184942112837619e-16 
-1.3885818070320243e-16 
9.10931766127375e-17 
-8.166352339495886e-17 
-5.427978267225362e-16 
3.831570341017974e-17 
3.703004390864884e-16 
6.595966520666988e-16 
6.52980324072042e-16 
-6.010237547323773e-16 
-1.5904987319740842e-16 
-1.7708518794336338e-16 
-9.69334553147821e-17 
6.200708886082492e-16 
4.929048319302581e-16 
7.737806154313834e-17 
5.41899780979513e-16 
-1.4113793425402455e-15 
1.0717133451779714e-15 
-4.536513631328237e-16 
-6.822019996300274e-16 
1.1260721462174735e-15 
-9.52528472434083e-16 
6.70701686710937e-16 
1.6799126232606698e-16 
-3.5627101299963386e-16 
-2.968351233640291e-17 
-6.104866340482615e-17 
-3.6533372216506325e-17 
-6.904723778272751e-17 
-2.1780079459530194e-17 
-1.1551654969615958e-17 
1.9542911729140135e-18 
1.5900463901655862e-17 
9.961507698114644e-18 
5.29021704494586e-19 
-1.7998918656437012e-18 
-1.9886331478489953e-19 
-1.2738629958718975e-19 
-2.2712771153713546e-19 
5.2185434479599575e-19 
-6.310018586166366e-19 
1.1447507134498529e-19 
-6.494537160860683e-19 
8.510013939402229e-20 
-1.1434523759395864e-18 
-1.9110051120348038e-18 
-8.551324097251662e-19 
-3.55790548527692e-19 
1.7163920124504684e-18 
-7.7563083107003995e-19 
1.1519056172890156e-18 
4.135814646942216e-19 
-1.6826500279910892e-18 
1.910967796825839e-18 
-1.7061485413997894e-18 
2.5589415558916357e-18 
-1.525753214540936e-18 
4.752152524072866e-19 
3.97495785597974e-19 
-1.6458309369737924e-18 
2.181262482380416e-18 
-2.8124903480885473e-18 
1.968663022807364e-18 
6.355237496397748e-18 
-4.917574208541176e-18 
7.124510917974214e-19 
-3.767293196534188e-18 
3.693744426944889e-19 
-1.5546451678829053e-18 
3.5546618426523364e-18 
7.827547431167628e-19 
-2.674681280113031e-18 
-8.993544270270863e-19 
-1.9863187293765896e-17 
-1.8148252029465665e-17 
-1.3792525087409569e-17 
1.393841983330246e-17 
-7.86163690786397e-18 
-5.120995632608118e-19 
-1.9839360394283941e-19 
1.2580459295506728e-17 
-1.3152986949271113e-17 
2.740952678369897e-17 
1.5073229887117932e-17 
-3.9857821185582054e-18 
2.2630128566794646e-18 
-1.0054591946722511e-17 
2.7240983469072027e-17 
-4.1850154367815494e-17 
2.2886394809855993e-17 
-6.188147404650381e-19 
6.225042087628788e-18 
1.1706719010750881e-17 
-1.287611438208816e-17 
-1.8351832081602047e-19 
2.5344656696837162e-17 
-1.0028878767517746e-17 
-2.128336058809138e-17 
6.09337012299587e-18 
2.3938683871429335e-18 
-9.116051461423677e-18 
3.1693956970930706e-17 
-5.5324995420575095e-17 
-1.3932269372607845e-18 
-3.688555474917919e-17 
6.201044333925751e-18 
-2.7083938690062796e-17 
1.3091380907315796e-18 
-3.5504399909437394e-17 
-1.258053170346134e-16 
-2.5836824777730622e-17 
-1.1727749323340592e-17 
-3.512633405446156e-17 
-8.618109649196383e-17 
-9.482337971396473e-17 
8.991939216819607e-17 
-2.645406300841626e-17 
9.719908164692484e-18 
2.28108468386335e-6 
-8.808034565180518e-5 
0.0001936573915833722 
0.13564974767870078 
-1.7408428537377083e-5 
-1.883380347548535e-5 
-7.062495085004592e-5 
0.05268826229846801 
-2.6065305391180987e-6 
-0.0004712881732667092 
-5.227273770017802e-6 
-1.003081845493934e-5 
-9.607039563868478e-5 
-0.00014161307199333622 
0.0003088928244526465 
0.13946729213219008 
-1.0025486782211975e-6 
-0.00011099692086748386 
-0.0005849176565831892 
-2.7221218034640272e-5 
-3.288154628466411e-5 
-0.0003267591198103577 
0.040569499790805784 
-1.6585430030982036e-6 
-5.551745483899077e-6 
0.000129481369896884 
0.0017578625593304207 
0.0022411747918218783 
-1.904369756429782e-5 
7.473348724777409e-5 
0.0001944481303685504 
-1.5844961795404568e-6 
5.065893509940114e-5 
-0.00010848566967629851 
2.853270370518161e-6 
1.300431388613091e-5 
0.000123751014475329 
0.000405812050965429 
-7.430534617079201e-6 
6.115934565195606e-6 
7.60350132896524e-6 
-5.482785516892362e-5 
0.0004747769019503659 
0.654350234926047 
3.3798708576779247e-7 
-8.08334710431627e-5 
0.0013438233288933826 
0.004714223959154906 
4.597328870883515e-6 
-7.3996535223508e-5 
0.00039189977425626763 
-6.161341709780391e-6 
-9.582901051229193e-6 
0.00021871737938103622 
0.003315497692524417 
-3.7795642044090986e-6 
-5.169697424443848e-5 
0.0002642568928146315 
0.0008708634726000889 
-2.147710419059795e-5 
2.4207416071077914e-5 
-3.6785077286941476e-5 
-0.00011088078074290136 
0.06358812690306571 
-4.10052146440684e-6 
-4.041250917240773e-5 
-0.00013891804865430162 
0.0021354516341262294 
3.8758498801868994e-5 
0.00010405445996229609 
-1.5879832647003522e-5 
-0.0019303771686213233 
0.16657169579525066 
2.7420382782738424e-5 
2.9847291693459298e-6 
-5.797257356758521e-6 
-3.0056338056059093e-5 
0.0010519958989485697 
2.637736079377257e-5 
-8.950562044516163e-7 
-9.122807221489162e-6 
2.3631002461595758e-5 
-3.975242465584232e-5 
0.13142109293266616 
-6.679790256423992e-6 
-4.182019467007562e-5 
0.0014786813415797189 
5.186112477796239e-7 
1.200872401000048e-5 
-4.744355874016069e-5 
0.0002818221438793977 
-1.3801915395871436e-7 
-2.0190324362271876e-5 
2.982780059066778e-5 
0.00018884334957977193 
0.10133115718055047 
-2.8294868893700077e-6 
-1.3808412883527878e-5 
2.189735855462873e-5 
0.0001221083323518797 
0.0015169519947018852 
-1.6153095801972518e-5 
-0.0002151607472547763 
1.1433108740695496e-6 
-1.6568693469471007e-6 
-2.5194015633401755e-5 
0.0073151733272388605 
7.996613488263731e-6 
0.0009064069954287346 
-0.0008548154509552958 
0.0021923798314272395 
-1.6462843082820217e-5 
5.347375208344128e-5 
-3.8700869066245535e-5 
-3.531769269396643e-5 
0.008089038980541604 
8.14259295055616e-5 
0.0002080158177818255 
-1.2495813972306268e-5 
0.0007204499821423667 
0.23163317775060963 
-1.2772465295812109e-5 
-3.403040323500372e-5 
0.0009924802764521296 
4.051379456338941e-6 
-2.608060108205764e-6 
0.034420371698105336 
-2.628134323879752e-5 
1.948213938982863e-5 
-3.0180352157717144e-5 
0.006452188216621382 
-8.692002315264055e-7 
-0.00010379142241636283 
0.0012017502592903473 
-2.9276119518582716e-5 
-2.8980117401610484e-5 
-2.1577230757729125e-5 
0.0005434356340537994 
0.0002440314504021639 
-6.16484478368811e-6 
-2.888709468279891e-5 
-0.0007982007854739406 
0.5259541778476757 
-6.420124673958536e-6 
-4.962229897613617e-5 
-2.0226921162337925e-5 
9.29684958257033e-5 
0.0002878974697084071 
1.4937100056101964e-6 
-3.3860122728574166e-6 
0.00018617284778282847 
-6.292004268371099e-7 
2.2250540750269793e-6 
8.152430565999441e-5 
0.0003941145589422634 
5.549153366719847e-7 
5.018141516053081e-6 
0.0005851647732759445 
4.852214095698741e-5 
5.421155767135422e-6 
-5.009585331179086e-5 
6.285680544793236e-5 
0.00041764172740213354 
-5.170640067000261e-5 
-7.79765480532721e-6 
-1.1956939090412955e-5 
-0.00018094300241777486 
2.7634615254643053e-6 
-3.318606595405058e-5 
-6.555690665903731e-5 
0.0006402122826602504 
0.007340614817941036 
-1.025755364051833e-6 
0.00010663387305136821 
0.03615559467003494 
-1.4411401861160273e-5 
-1.973718873094215e-6 
0.0004971553374651554 
0.45421584476040755 
-1.6887050403310636e-6 
4.017785242378156e-5 
2.8276861033678315e-5 
0.267327483432001 
-1.0042791164106826e-6 
0.0007433913308654815 
-2.350385897607682e-6 
7.943583322851844e-6 
-2.8182125426779862e-5 
-8.502002898849954e-6 
0.0007388732065237247 
-3.6535244006588064e-6 
1.458785817463256e-6 
0.0003502606203821135 
0.23204258556356946 
-4.375373785629436e-6 
-2.3589191369012444e-5 
-0.0001177554162680748 
-0.0029191054101066873 
0.030244428427438668 
-1.1758117688070394e-5 
6.118301943036014e-5 
0.0015241753860074801 
2.331560520630746e-8 
6.7522653587083944e-6 
-0.0013222853531803913 
0.040477954042572324 
3.1097506504112944e-6 
5.1773622060551074e-5 
-1.887269464076831e-5 
-0.000133916542386808 
0.0001526561498494341 
4.179257480221048e-6 
-0.0005418399168809309 
1.661421588951006e-5 
4.497582779993666e-6 
6.95856486224943e-5 
-3.524526363259333e-5 
4.015637382967434e-5 
-0.0025877731963452255 
0.055697999403264066 
-1.035330500601651e-5 
-4.2410060568061704e-5 
-0.0006009990039643059 
0.00015180197385972988 
-3.0963796331167155e-6 
0.0005992547297101667 
0.005442598282959387 
-6.371857622014325e-7 
5.1578359637989555e-5 
-0.00010060926589771942 
-0.0003714701196774599 
5.538470386967267e-5 
-1.7311623848524682e-5 
0.00010078653746817827 
9.298507364128853e-8 
-5.2364813670823654e-8 
-6.700506512713105e-5 
0.00036751008413567514 
0.09845334882992383 
-5.251563038552247e-6 
-1.7226972561866234e-5 
0.0003768969635364896 
0.40184659391676497 
-4.184750837383811e-6 
6.952523254892776e-5 
0.0002686099399110037 
-3.483116458790839e-6 
-4.791780648408506e-6 
1.8559846572406832e-6 
-0.00014658121064938784 
0.0004208368617823037 
-1.6651479093444898e-6 
0.0010249825399977054 
-4.507474448957391e-5 
7.458288309319175e-6 
-1.5902376148613923e-5 
-2.4474501584221253e-5 
5.2939936413745294e-5 
-0.001724143056646414 
-2.2370990494723e-6 
0.0008052279650914339 
-3.7020709304041456e-7 
-7.592840106351032e-6 
-2.1878822184108518e-5 
0.001829586099849234 
-8.567423256516872e-5 
7.655930503431502e-5 
-0.0004027308985985857 
-6.175085521950902e-6 
-1.3820104900277789e-6 
0.0003348071008225857 
4.7154587034659824e-5 
0.005386579306351565 
0.00010773341592362508 
3.0003098559270773e-6 
8.573399742978268e-5 
0.0009181822607481386 
3.518383484599864e-9 
1.669426883874435e-5 
0.00018736322601126446 
-0.0002754374829427016 
-1.0093181219513667e-5 
0.016267956559868815 
-2.149647560879579e-5 
1.1987486634332908e-5 
0.0019883640489170985 
-8.573279031339728e-5 
5.4114557346219114e-5 
-0.0004669887349899649 
7.300213524669657e-6 
7.863788653490221e-6 
5.335766249254252e-6 
3.2698900057512713e-7 
1.0232176113728987e-5 
3.8688345207042333e-5 
-0.00017402271820902472 
-7.026316317132058e-6 
-1.7206768566840115e-6 
3.525275100479714e-5 
0.015626645953156777 
4.472222749993296e-6 
-4.7715276491254994e-5 
1.0753194278216793e-5 
0.3091582770802225 
-3.156725504021695e-6 
2.4946614027370423e-6 
0.00020686611333169816 
5.7214199784104216e-5 
-0.00010539148500074982 
0.02540628129904244 
1.698950272346199e-5 
-5.619092636144763e-5 
2.2869121839148187e-5 
2.1927841836939553e-5 
0.061687362827083696 
-1.3461397640438357e-5 
-1.721997691602174e-5 
-0.0005299525557222464 
0.00017151159603906522 
1.572100354316552e-6 
0.0009230586349742027 
-0.0003367601158107649 
0.00030845524936101785 
0.004517278436266739 
4.2449087238009435e-6 
1.0486567878054482e-5 
0.00013820948808090222 
0.00010601498490501276 
-3.63963089361519e-6 
-3.6057209977039876e-6 
-4.5778301994586677e-7 
-1.703045429906992e-5 
-2.0785506563512073e-5 
-0.00016773980151269457 
-1.580705501757785e-6 
4.0414880426075635e-5 
-0.0005053349720294603 
2.495251708695926e-6 
1.5893916389838984e-6 
0.00018451146951303814 
0.019612945967495507 
9.649009060283525e-7 
2.0319864212237634e-5 
-1.4763574375658826e-6 
0.0007299483599828162 
0.04233743896421334 
-2.687474468066379e-6 
5.6119753911324383e-5 
3.412230931350648e-6 
0.002097261093179082 
0.22209268851555275 
0.0004079449308931372 
-5.332487398589344e-5 
-1.377949483217704e-6 
-3.161701815389595e-6 
7.505675252079249e-5 
-0.002037179984298681 
1.2838770197488522e-6 
-1.2382281721943802e-5 
-4.990984440337735e-5 
-0.0008125058163781113 
2.266664077857174e-6 
2.611871400994753e-6 
-2.2794118622351575e-5 
-0.00015733224961100926 
0.0001824071512607569 
4.0793339588553336e-7 
0.00023726349287032778 
6.794645856745887e-8 
7.364718690988736e-6 
7.501147948198103e-5 
-0.0001380863526519447 
3.211426960469892e-8 
9.040937669192552e-6 
4.9674347758394014e-5 
-6.699028248403304e-6 
-4.1144400344397124e-5 
0.005627218243050752 
-1.1853566612523881e-5 
1.8762875485516983e-5 
0.17712430614293698 
-2.1273703630905223e-6 
0.024371988103572766 
5.474695952630503e-6 
4.2032212800732256e-5 
0.0002143930604588623 
0.0917544501775677 
2.225381045820408e-6 
-4.851270511262928e-6 
-0.00012782034205535873 
-0.0007547268449064871 
8.121273178718494e-7 
0.0010916007211085618 
-0.0001457133431341915 
0.0016359681755291153 
0.15680984090791877 
-7.601455965185925e-6 
0.00035336355797127957 
9.221273139957947e-7 
-1.526779715236675e-5 
-0.00018185530507274528 
0.0004228449229161157 
8.490330636901231e-5 
-0.00034779929222964037 
0.6226276765573564 
-1.3935199016000135e-5 
0.00012967780124287015 
0.0007595908447462375 
-8.699412015116976e-7 
7.5496682731654555e-6 
0.0015555114180989232 
0.008792433912121738 
-1.1890485963548795e-5 
-6.861089560328237e-5 
0.0478792131740532 
-1.2253951533274358e-5 
-0.0006761576968675452 
0.006883930612141266 
-4.924558859790072e-6 
3.284133891437039e-5 
-8.532570735493872e-6 
1.3959999089434423e-5 
-0.0005736149677189545 
-1.5664814726611196e-5 
-3.539259797267596e-5 
-0.000818910321506013 
0.006441845380662079 
-1.9939032725289154e-7 
3.0726099378089e-5 
0.00115247761028411 
0.0027080611708354516 
-3.091095466931722e-5 
2.04830510627774e-5 
-1.792537627002096e-5 
5.204775864405263e-6 
3.37652401528969e-5 
-0.0001146314866882337 
0.00040814857591475696 
2.2670487439595011e-7 
-1.7642965447691473e-5 
-5.8562930288598474e-5 
0.0006153829578141802 
-8.576562553245527e-6 
-1.2977846760264844e-5 
2.4908204219282055e-5 
-0.0002521541425826752 
0.00033692121419754545 
3.1711421473521486e-6 
0.14538810346125217 
2.371384770195207e-5 
-0.00028755969734830676 
0.00010373167504738649 
-2.2573517608849166e-6 
1.5744485434988217e-5 
3.060570298899289e-5 
0.00016047167855420857 
2.930996461793564e-7 
8.016902981852849e-6 
5.770008214184944e-6 
-0.0001610448051907046 
0.4594287233034498 
-2.1360739332557682e-7 
-1.2695109321844365e-6 
0.014940906279648173 
7.529187781689543e-5 
2.4817885271313232e-5 
-0.00023772042876912683 
7.13909518057434e-5 
-0.0007758381675141071 
3.143029229865135e-7 
-7.633538282784134e-6 
1.4764050421754184e-6 
8.852952617626584e-5 
0.00029287850016496055 
-3.6604700540327945e-6 
-3.454942656523368e-6 
0.00046229180116425964 
0.3330927707453144 
4.227859213737893e-6 
6.3367565830458505e-6 
0.00022261435215147746 
-0.00030701356779263764 
-1.625309820148732e-6 
-3.248551335198457e-5 
-0.00013684527536268938 
2.2458071049027444e-5 
3.57049465110627e-5 
-0.0008815679717307341 
0.0037208555624356574 
8.306520286548333e-6 
0.12086177864883949 
0.04565281266157883 
0.0960000827955512 
2.5776851323932378e-6 
1.98491025405297e-5 
-7.4170837647778605e-6 
0.00010454754637625118 
6.088565635991749e-6 
-0.00014156006899062454 
0.015881803382920216 
0.006208159010113035 
0.005762763181985212 
1.0541741164004913e-5 
0.0003852634645651864 
0.0005246294209876078 
8.309324542963534e-5 
-0.00010378058392439687 
1.7363943447048278e-5 
-4.1605302353981715e-5 
-0.00011135094368752202 
6.771448259752259e-7 
3.750233229072592e-6 
-0.00238149835365917 
0.0036991720516433876 
0.20661361315591567 
0.07932790565823421 
1.977349914972104e-5 
3.691363802550504e-6 
0.00016338380085659558 
-4.4595741690177566e-5 
0.0040655037517740925 
-0.0019221433050718474 
0.0006966030928281237 
0.002533485853481902 
0.018386912153604367 
0.009009382809588386 
0.0048734911947065735 
4.791993061316836e-5 
-4.966997025911814e-5 
6.128692051181346e-5 
6.933672445706395e-5 
-6.602992114627127e-5 
-6.702453941026318e-6 
6.723369350275321e-5 
-0.00010362123028906263 
6.223081098941404e-5 
0.0008501995053304334 
-0.00047936897679222727 
-1.078852595078387e-7 
7.420504012326517e-7 
1.6269230532328946e-6 
-4.734389540361645e-6 
1.7712760314638826e-5 
-1.963911386141074e-5 
7.924435780288154e-6 
5.706384113194184e-5 
-0.00045418821929191764 
0.00014571499215228808 
1.7640251267309018e-6 
3.994483106355874e-8 
8.096301855372493e-6 
8.12887826816637e-6 
4.037214481025467e-6 
6.213932002554037e-5 
0.00038532296581301383 
-5.8011419066810556e-6 
-1.2500127193757072e-6 
6.273562402279548e-8 
-8.922019015397418e-6 
1.57107273834925e-5 
-3.4211994431617e-6 
-1.612397385280021e-5 
5.3594705383193185e-6 
0.00017267741696250653 
-7.89761824694708e-6 
-6.629799439887686e-6 
0.017371327136639456 
0.010612823200810024 
0.028590540743607437 
-3.957819516283893e-6 
7.550248526760765e-7 
1.4320997977543707e-6 
-3.89676863143844e-5 
8.309674946658964e-5 
-0.00020072088481894933 
9.479603990296267e-7 
6.139256128472954e-7 
-2.843092245382622e-7 
1.0086832850874854e-5 
-1.5944722422757895e-5 
-5.623773108410912e-6 
2.2729535347892144e-5 
-2.844092064374492e-5 
-6.727433946476879e-5 
-0.0007031980810733972 
0.0005404309371467855 
-9.478918206379178e-5 
-9.813668307985516e-6 
5.189918579596345e-6 
-4.693107950929818e-6 
5.677840547413067e-7 
-3.1841628357469144e-6 
-5.079303347214779e-7 
1.4629177630539867e-6 
-8.929142355909857e-7 
6.432422570429465e-5 
-6.10050828604067e-5 
-8.149170861881607e-5 
-3.942264783189807e-8 
-2.0129301411024794e-5 
1.2056406117259879e-5 
1.0891227705101136e-5 
-1.425335764894319e-6 
2.3849516464705527e-5 
-0.0004860166419954313 
0.0004314134465590013 
0.00012177656719679997 
3.6110136393819536e-5 
2.7297795151134893e-6 
1.1728056223627485e-6 
-1.317728330791058e-5 
3.983175165595076e-6 
8.044005793910827e-6 
-0.00011180879088574373 
-4.094470503771507e-5 
2.0870697061588902e-5 
-3.687129042068571e-5 
-0.00033461540927964633 
-0.0001353870813871767 
-4.05328338365199e-6 
-5.367775094485695e-6 
6.077804392538432e-6 
-9.90893956852335e-6 
3.488683851660825e-5 
-5.732898080033775e-5 
7.190944614908775e-5 
-0.00025137415431230735 
1.2981210075948933e-7 
1.0658059247252267e-7 
9.802090238532923e-6 
-7.478664550303159e-6 
9.536127023033259e-6 
3.4269439766665807e-6 
0.00012002505121074106 
-1.385577747118636e-5 
0.003904351240547291 
0.004133795245644736 
2.8172276537408958e-8 
-4.785382236161267e-7 
3.707480408871529e-5 
4.6858377780758564e-5 
-5.044151810926932e-5 
0.001211086273477954 
0.00014621656579409068 
-0.001357356922777065 
-9.872000868027761e-5 
7.361414580169926e-5 
0.0004773625561836371 
-7.027829683062887e-8 
1.0808569547657133e-5 
-5.214139223949241e-6 
0.0012652035326311062 
0.0020593117502053023 
0.000150479760606573 
2.186322605504017e-5 
-0.0005532146956945892 
0.0006302963855093232 
1.0477533523068488e-6 
-1.0389798940226287e-6 
2.1267947691318986e-5 
4.4628613626102156e-6 
0.00011363280528259903 
-0.00035362626842732096 
-3.803263884561806e-5 
0.0006242072502197212 
0.0003521161752800707 
0.0005135098490158928 
3.464365657408202e-6 
-7.438448307884088e-7 
-5.054596403187052e-6 
-3.154292924061882e-5 
-3.63246932639476e-5 
7.654385129950581e-5 
0.00035657991848215897 
-0.0005832137030980064 
-9.100235294283954e-5 
-5.611275801383977e-6 
1.1450989677464016e-5 
-1.2393857388214749e-6 
1.143292765522693e-5 
-8.279958646525977e-6 
5.264305444377227e-7 
2.6329453171601246e-5 
-6.030380556934134e-5 
9.381907443404625e-5 
3.745571811133677e-6 
-1.5247159739343518e-5 
0.00029873976339092677 
-0.0004618908792847743 
-4.082541278739656e-5 
7.245477828247809e-5 
-4.664138607862267e-6 
-3.0471294809638725e-6 
-4.234864889457519e-5 
9.6937558999175e-5 
-8.99974951398924e-5 
-2.6921502229766603e-5 
0.0003910033642230961 
-0.0005498191917103947 
2.5435450015121635e-6 
-8.543131276272457e-6 
-5.505944237618573e-6 
5.991403178329912e-6 