# vtk DataFile Version 3.0 
Unstructured Grid 
ASCII 
DATASET UNSTRUCTURED_GRID
POINTS 2173 float 
-0.5 -0.5 0  
0.5 -0.5 0  
0.5 0.5 0  
-0.5 0.5 0  
-0.475 -0.5 0  
-0.45 -0.5 0  
-0.425 -0.5 0  
-0.4 -0.5 0  
-0.375 -0.5 0  
-0.35 -0.5 0  
-0.325 -0.5 0  
-0.3 -0.5 0  
-0.275 -0.5 0  
-0.25 -0.5 0  
-0.225 -0.5 0  
-0.2 -0.5 0  
-0.175 -0.5 0  
-0.15 -0.5 0  
-0.125 -0.5 0  
-0.1 -0.5 0  
-0.075 -0.5 0  
-0.05 -0.5 0  
-0.025 -0.5 0  
-1.3761214e-12 -0.5 0  
0.025 -0.5 0  
0.05 -0.5 0  
0.075 -0.5 0  
0.1 -0.5 0  
0.125 -0.5 0  
0.15 -0.5 0  
0.175 -0.5 0  
0.2 -0.5 0  
0.225 -0.5 0  
0.25 -0.5 0  
0.275 -0.5 0  
0.3 -0.5 0  
0.325 -0.5 0  
0.35 -0.5 0  
0.375 -0.5 0  
0.4 -0.5 0  
0.425 -0.5 0  
0.45 -0.5 0  
0.475 -0.5 0  
0.5 -0.475 0  
0.5 -0.45 0  
0.5 -0.425 0  
0.5 -0.4 0  
0.5 -0.375 0  
0.5 -0.35 0  
0.5 -0.325 0  
0.5 -0.3 0  
0.5 -0.275 0  
0.5 -0.25 0  
0.5 -0.225 0  
0.5 -0.2 0  
0.5 -0.175 0  
0.5 -0.15 0  
0.5 -0.125 0  
0.5 -0.1 0  
0.5 -0.075 0  
0.5 -0.05 0  
0.5 -0.025 0  
0.5 -1.3761214e-12 0  
0.5 0.025 0  
0.5 0.05 0  
0.5 0.075 0  
0.5 0.1 0  
0.5 0.125 0  
0.5 0.15 0  
0.5 0.175 0  
0.5 0.2 0  
0.5 0.225 0  
0.5 0.25 0  
0.5 0.275 0  
0.5 0.3 0  
0.5 0.325 0  
0.5 0.35 0  
0.5 0.375 0  
0.5 0.4 0  
0.5 0.425 0  
0.5 0.45 0  
0.5 0.475 0  
0.475 0.5 0  
0.45 0.5 0  
0.425 0.5 0  
0.4 0.5 0  
0.375 0.5 0  
0.35 0.5 0  
0.325 0.5 0  
0.3 0.5 0  
0.275 0.5 0  
0.25 0.5 0  
0.225 0.5 0  
0.2 0.5 0  
0.175 0.5 0  
0.15 0.5 0  
0.125 0.5 0  
0.1 0.5 0  
0.075 0.5 0  
0.05 0.5 0  
0.025 0.5 0  
1.3761214e-12 0.5 0  
-0.025 0.5 0  
-0.05 0.5 0  
-0.075 0.5 0  
-0.1 0.5 0  
-0.125 0.5 0  
-0.15 0.5 0  
-0.175 0.5 0  
-0.2 0.5 0  
-0.225 0.5 0  
-0.25 0.5 0  
-0.275 0.5 0  
-0.3 0.5 0  
-0.325 0.5 0  
-0.35 0.5 0  
-0.375 0.5 0  
-0.4 0.5 0  
-0.425 0.5 0  
-0.45 0.5 0  
-0.475 0.5 0  
-0.5 0.475 0  
-0.5 0.45 0  
-0.5 0.425 0  
-0.5 0.4 0  
-0.5 0.375 0  
-0.5 0.35 0  
-0.5 0.325 0  
-0.5 0.3 0  
-0.5 0.275 0  
-0.5 0.25 0  
-0.5 0.225 0  
-0.5 0.2 0  
-0.5 0.175 0  
-0.5 0.15 0  
-0.5 0.125 0  
-0.5 0.1 0  
-0.5 0.075 0  
-0.5 0.05 0  
-0.5 0.025 0  
-0.5 1.3761214e-12 0  
-0.5 -0.025 0  
-0.5 -0.05 0  
-0.5 -0.075 0  
-0.5 -0.1 0  
-0.5 -0.125 0  
-0.5 -0.15 0  
-0.5 -0.175 0  
-0.5 -0.2 0  
-0.5 -0.225 0  
-0.5 -0.25 0  
-0.5 -0.275 0  
-0.5 -0.3 0  
-0.5 -0.325 0  
-0.5 -0.35 0  
-0.5 -0.375 0  
-0.5 -0.4 0  
-0.5 -0.425 0  
-0.5 -0.45 0  
-0.5 -0.475 0  
-0.002115384 -0.00023065208 0  
-0.20714286 -0.20714286 0  
0.20714286 -0.20714286 0  
0.20714286 0.20714286 0  
-0.20714286 0.20714286 0  
-0.28155318 -0.0017231192 0  
0.0017231192 -0.28155318 0  
0.28155318 0.0017231192 0  
-0.0017231192 0.28155318 0  
0.3319978 -0.33098683 0  
0.33098683 0.3319978 0  
-0.3319978 0.33098683 0  
-0.33098683 -0.3319978 0  
-0.14015679 -0.06698606 0  
0.06698606 -0.14015679 0  
0.14015679 0.06698606 0  
-0.06698606 0.14015679 0  
-0.1387125 -0.34573975 0  
0.34573975 -0.1387125 0  
0.1387125 0.34573975 0  
-0.34573975 0.1387125 0  
0.14046866 -0.34602854 0  
0.34602854 0.14046866 0  
-0.14046866 0.34602854 0  
-0.34602854 -0.14046866 0  
-0.05869875 -0.16617337 0  
0.18217777 -0.061504476 0  
0.062312964 0.18362015 0  
-0.18362015 0.062312964 0  
-0.034321424 -0.38563195 0  
0.38563195 -0.034321424 0  
0.034321424 0.38563195 0  
-0.38563195 0.034321424 0  
0.39586002 -0.2428538 0  
0.2428538 0.39586002 0  
-0.39586002 0.2428538 0  
-0.2428538 -0.39586002 0  
0.23688246 -0.38952246 0  
0.38952246 0.23688246 0  
-0.23688246 0.38952246 0  
-0.38952246 -0.23688246 0  
-0.24287231 -0.09948847 0  
0.09948847 -0.24287231 0  
0.24287231 0.09948847 0  
-0.09948847 0.24287231 0  
-0.11560815 -0.24300627 0  
0.24300627 -0.11560815 0  
0.11560815 0.24300627 0  
-0.24300627 0.11560815 0  
-0.40192315 -0.4008276 0  
0.4008276 -0.40192315 0  
0.40192315 0.4008276 0  
-0.4008276 0.40192315 0  
0.06409326 -0.40289903 0  
0.40289903 0.06409326 0  
-0.06409326 0.40289903 0  
-0.40289903 -0.06409326 0  
0.2962961 -0.23982804 0  
0.23982804 0.2962961 0  
-0.2962961 0.23982804 0  
-0.23982804 -0.2962961 0  
-0.28087237 -0.21196799 0  
0.21196799 -0.28087237 0  
0.28087237 0.21196799 0  
-0.21196799 0.28087237 0  
-0.0901279 0.007867504 0  
-0.05002927 -0.07494272 0  
0.0873353 -0.009871756 0  
0.0071518295 0.09216282 0  
-0.14120433 -0.1484696 0  
-0.14581114 0.13960092 0  
0.1458264 -0.14505939 0  
0.13960092 0.14581114 0  
0.41838804 -0.3182741 0  
0.3182741 0.41838804 0  
-0.41838804 0.3182741 0  
-0.3182741 -0.41838804 0  
0.32118136 -0.41712493 0  
0.41712493 0.32118136 0  
-0.32118136 0.41712493 0  
-0.41712493 -0.32118136 0  
-0.19707234 -0.014843048 0  
0.018050108 -0.20183705 0  
0.19707234 0.014843048 0  
-0.014843048 0.19707234 0  
-0.10938372 -0.41847488 0  
0.41847488 -0.10938372 0  
0.10938372 0.41847488 0  
-0.41847488 0.10938372 0  
0.15773043 -0.4267032 0  
0.4267032 0.15773043 0  
-0.15773043 0.4267032 0  
-0.4267032 -0.15773043 0  
-0.3204562 -0.07174808 0  
0.07174808 -0.3204562 0  
0.3204562 0.07174808 0  
-0.07174808 0.3204562 0  
0.02801032 -0.07269879 0  
-0.31817523 0.069836795 0  
-0.069836795 -0.31817523 0  
0.31817523 -0.069836795 0  
0.069836795 0.31817523 0  
0.43106207 -0.17757268 0  
0.17757268 0.43106207 0  
-0.43106207 0.17757268 0  
-0.17757268 -0.43106207 0  
0.0703783 0.071201205 0  
-0.051593844 0.064346604 0  
0.099701226 -0.08333426 0  
0.2863281 -0.17248559 0  
0.17248559 0.2863281 0  
-0.2863281 0.17248559 0  
-0.17248559 -0.2863281 0  
-0.2341888 0.04979648 0  
-0.049194112 -0.231281 0  
0.23358595 -0.04946041 0  
0.04979648 0.2341888 0  
-0.009939441 -0.13691185 0  
-0.26560438 -0.17864102 0  
0.17864102 -0.26560438 0  
0.26560438 0.17864102 0  
-0.17864102 0.26560438 0  
0.013302229 -0.43510666 0  
0.43510666 0.013302229 0  
-0.013302229 0.43510666 0  
-0.43510666 -0.013302229 0  
0.09432827 0.114700764 0  
-0.11539384 0.093188405 0  
-0.3413634 -0.005100272 0  
0.005100272 -0.3413634 0  
0.3413634 0.005100272 0  
-0.005100272 0.3413634 0  
-0.19817708 -0.3508856 0  
0.3508856 -0.19817708 0  
0.19817708 0.3508856 0  
-0.3508856 0.19817708 0  
-0.34100306 -0.27216324 0  
0.27216324 -0.34100306 0  
0.34100306 0.27216324 0  
-0.27216324 0.34100306 0  
-0.20269383 -0.14403741 0  
0.14393912 -0.2028372 0  
0.2026342 0.14393856 0  
-0.14393856 0.2026342 0  
-0.1030633 -0.10524017 0  
-0.4394695 -0.104853734 0  
0.104853734 -0.4394695 0  
0.4394695 0.104853734 0  
-0.104853734 0.4394695 0  
-0.44156647 -0.44156647 0  
0.44156647 -0.44156647 0  
0.44156647 0.44156647 0  
-0.44156647 0.44156647 0  
-0.2683254 -0.44465622 0  
0.44465622 -0.2683254 0  
0.2683254 0.44465622 0  
-0.44465622 0.2683254 0  
0.2654342 -0.4435478 0  
0.4435478 0.2654342 0  
-0.2654342 0.4435478 0  
-0.4435478 -0.2654342 0  
-0.27373606 -0.34534052 0  
0.34534052 -0.27373606 0  
0.27373606 0.34534052 0  
-0.34534052 0.27373606 0  
-0.05307205 -0.4481981 0  
0.4481981 -0.05307205 0  
0.05307205 0.4481981 0  
-0.4481981 0.05307205 0  
-0.35614902 -0.19390328 0  
0.19390328 -0.35614902 0  
0.35614902 0.19390328 0  
-0.19390328 0.35614902 0  
-0.14022674 -0.012452113 0  
0.14171903 0.011271359 0  
-0.01125192 0.14089845 0  
-0.19556868 -0.06932378 0  
0.070511825 -0.19668652 0  
0.19556868 0.06932378 0  
-0.06932378 0.19556868 0  
-0.24951252 -0.039742906 0  
0.04037078 -0.2503529 0  
0.24951252 0.039742906 0  
-0.039742906 0.24951252 0  
0.44100407 -0.36164257 0  
0.36164257 0.44100407 0  
-0.44100407 0.36164257 0  
-0.36164257 -0.44100407 0  
-0.4451273 -0.36589316 0  
0.36589316 -0.4451273 0  
0.4451273 0.36589316 0  
-0.36589316 0.4451273 0  
0.1121834 -0.30242515 0  
0.30242515 0.1121834 0  
-0.1121834 0.30242515 0  
-0.30242515 -0.1121834 0  
-0.115146436 -0.19087775 0  
0.19190264 -0.11309679 0  
0.11520548 0.19263776 0  
-0.19263776 0.11520548 0  
-0.08287991 -0.37025127 0  
0.37025127 -0.08287991 0  
0.08287991 0.37025127 0  
-0.37025127 0.08287991 0  
0.23791528 -0.24381089 0  
0.24381089 0.23791528 0  
-0.23791528 0.24381089 0  
-0.24381089 -0.23791528 0  
-0.44626984 -0.21174923 0  
0.21174923 -0.44626984 0  
0.44626984 0.21174923 0  
-0.21174923 0.44626984 0  
0.35174853 -0.37705234 0  
0.37705234 0.35174853 0  
-0.35174853 0.37705234 0  
-0.37705234 -0.35174853 0  
-0.048605647 -0.023262763 0  
-0.1551113 -0.21381997 0  
0.21381997 -0.1551113 0  
0.1551113 0.21381997 0  
-0.21381997 0.1551113 0  
-0.29403278 -0.30027482 0  
0.30027482 -0.29403278 0  
0.29403278 0.30027482 0  
-0.30027482 0.29403278 0  
0.12173745 -0.390654 0  
0.390654 0.12173745 0  
-0.12173745 0.390654 0  
-0.390654 -0.12173745 0  
-0.12236246 -0.2979882 0  
0.2979882 -0.12236246 0  
0.12236246 0.2979882 0  
-0.2979882 0.12236246 0  
-0.0945969 -0.046371013 0  
0.035276897 -0.027358124 0  
-0.0076714605 0.051946 0  
-0.30809116 -0.17165439 0  
0.17165439 -0.30809116 0  
0.30809116 0.17165439 0  
-0.17165439 0.30809116 0  
-0.16592422 -0.10879113 0  
0.10700909 -0.1687818 0  
0.16864619 0.10664837 0  
-0.10664837 0.16864619 0  
-0.16784625 -0.38069874 0  
0.38069874 -0.16784625 0  
0.16784625 0.38069874 0  
-0.38069874 0.16784625 0  
-0.4563872 -0.05993889 0  
0.05993889 -0.4563872 0  
0.4563872 0.05993889 0  
-0.05993889 0.4563872 0  
0.31103167 -0.37412483 0  
0.37412483 0.31103167 0  
-0.31103167 0.37412483 0  
-0.37412483 -0.31103167 0  
-0.3909646 -0.012754724 0  
0.012754724 -0.3909646 0  
0.3909646 0.012754724 0  
-0.012754724 0.3909646 0  
0.44915667 -0.21679194 0  
0.21679194 0.44915667 0  
-0.44915667 0.21679194 0  
-0.21679194 -0.44915667 0  
0.045831423 0.12033131 0  
-0.12662303 0.045442794 0  
-0.3107799 -0.37355793 0  
0.37355793 -0.3107799 0  
0.3107799 0.37355793 0  
-0.37355793 0.3107799 0  
0.04152367 0.021693805 0  
-0.08040017 -0.2675595 0  
0.26794365 -0.08044455 0  
0.080500565 0.2680441 0  
-0.2680441 0.080500565 0  
-0.13753757 -0.45578164 0  
0.45578164 -0.13753757 0  
0.13753757 0.45578164 0  
-0.45578164 0.13753757 0  
-0.05507968 -0.12135967 0  
0.14172421 -0.09428923 0  
0.2571752 -0.19664502 0  
[...]
POINT_DATA 2173 
SCALARS T float 
LOOKUP_TABLE default 
-8.422838104652305e-20 
1.4282375879719188e-17 
7.294076772439878e-20 
1.143651663848223e-19 
1.229791877038792e-17 
1.689616742814012e-17 
-1.995830428054815e-17 
4.9098839001871194e-17 
8.984050307093419e-17 
1.1075038093663824e-16 
-2.089351607948999e-17 
-1.183440142124555e-16 
1.9464058765062593e-17 
-1.1046125487156203e-16 
6.970956194396765e-17 
-3.9670004133453945e-17 
8.047723132344498e-17 
7.269929969747297e-17 
-8.626955167008908e-18 
9.646869994389364e-17 
-1.1179847081310023e-16 
-2.0021694442757922e-17 
1.8498142219996848e-16 
6.016256629067269e-17 
-2.8820276994196264e-16 
5.531494831783434e-16 
-6.94571577802273e-16 
6.321111488116062e-16 
5.791488914410762e-17 
1.4528952269657347e-16 
-4.6958560892961144e-17 
7.722087586923319e-17 
1.7901081268483691e-16 
-2.1014838428681836e-16 
-1.9751102416826437e-16 
3.290728981047273e-16 
2.513982621674093e-16 
-6.806960628352284e-16 
-1.688458281415929e-16 
1.1241605560421816e-16 
-3.433453887663681e-16 
3.9666721572327215e-19 
-8.574395597418888e-17 
1.1867010907156691e-16 
2.9409670233174217e-18 
6.716534085475021e-16 
-3.238878012731516e-16 
-2.5093776231126596e-16 
-1.6003763482782417e-16 
4.8467404452092265e-17 
1.09564742528066e-15 
-1.336744256673469e-16 
9.453335658699937e-16 
-1.0874967379805224e-15 
4.325192575312356e-16 
4.334363044010936e-16 
4.3405624177100243e-16 
1.7592601940852143e-15 
-5.557885566042236e-16 
4.8023774850341145e-16 
5.765904834279264e-16 
-4.9280597048125135e-16 
4.420639939257011e-16 
-4.661319553469051e-16 
6.43724704574865e-16 
-6.974045020111078e-16 
8.629152790501372e-16 
1.453972181899076e-16 
6.5850512359062e-17 
1.347232910752814e-16 
-7.562101146021233e-17 
6.331236627857059e-17 
-2.3814914255081244e-16 
-1.845928368171677e-16 
-1.659237844930613e-16 
-3.097836376261507e-17 
-5.563188843765143e-17 
-1.0087428814870458e-17 
-1.5005017073426514e-18 
-3.024334895738673e-19 
-1.325081727116613e-19 
6.866033297045478e-19 
-5.626847250043706e-19 
-2.9073980094359294e-19 
2.479434512732769e-18 
-6.452046995922382e-19 
-3.9371907874295516e-19 
-2.7461572622490336e-18 
-3.499174217059092e-18 
-8.74242499194695e-18 
-1.1433575688424021e-17 
9.768911143061345e-18 
-5.155136777447591e-19 
7.591878012935992e-19 
6.871643905746239e-19 
9.2638013710353e-20 
2.970131590231826e-18 
-1.1850210113849768e-18 
1.7788100991741546e-18 
-9.217797282547497e-19 
1.4444876540184163e-18 
-1.1539882102855143e-18 
7.714095042675878e-19 
-5.187533602597738e-19 
-4.578174918018071e-19 
2.5137045533632983e-18 
5.7841248356174935e-18 
-8.585403906405411e-19 
-1.8951993728762985e-18 
4.595142134027653e-18 
-1.0601810326116069e-17 
1.0704450955142376e-17 
-1.0979073108265786e-17 
-1.2448082540642853e-17 
1.3902194182055529e-18 
-7.87425877053662e-18 
-1.3647782059484707e-17 
-1.529367945148364e-17 
6.016912073275265e-18 
-6.976830019404971e-18 
-3.723889371632638e-18 
3.526100565306281e-18 
4.4399360376963685e-18 
-6.95177381893665e-18 
1.2613147138052428e-17 
1.692737192395996e-17 
1.2034502207441203e-17 
4.969093261452757e-18 
-6.18116076385241e-18 
-4.896243094717113e-18 
1.2345135287469244e-17 
-2.720133368478594e-17 
7.719132530238349e-18 
1.0198753830805524e-17 
-1.165462456210756e-17 
2.910341149742841e-17 
-4.23693116394821e-17 
5.643095073306897e-17 
-2.8029347594217044e-17 
-9.655356475065588e-18 
1.2694693006259884e-18 
4.869724492689941e-20 
2.527021527107597e-18 
-6.041262854333098e-19 
-3.7289451650989737e-17 
5.3165452327886545e-17 
-4.697022098777425e-17 
3.063107636242567e-17 
-1.686981389142066e-17 
-5.2869141412517873e-17 
8.338776970947969e-17 
-1.2389773625075663e-16 
-5.782288705758685e-17 
-1.1440204016832148e-17 
-4.1648554857998804e-17 
-5.444639228126675e-17 
-5.346609510816304e-17 
-2.968431779763451e-20 
-2.5059773291592094e-17 
-1.494535411574888e-17 
2.2793847399335078e-6 
-1.8858010533982816e-5 
0.00011434489251492862 
0.39965519330786586 
-6.039310067773182e-7 
-9.958715033544727e-6 
0.0001632917550127672 
0.008514776600671329 
-2.55488911032658e-5 
0.0004083407518246381 
-9.518334293094181e-5 
-2.94752398889505e-6 
4.509179785672236e-5 
7.803350906555205e-6 
0.00037153250881674616 
0.10541932320714256 
-6.865049001113878e-6 
-2.9627779271811454e-5 
-0.0007555857464765141 
0.0003760021096253604 
1.2718166670183296e-6 
-0.00024743388746774824 
0.017852581641772246 
4.582180025017856e-6 
3.850136117513932e-5 
2.1939439343546682e-5 
0.0016418948329477618 
0.026424969818347747 
-3.4033729597182972e-6 
0.00010720131057644137 
-0.0015536478303627655 
-1.7928699069817657e-6 
2.7951250966169165e-7 
-0.0005356870187323231 
2.6106644437863506e-5 
9.843257485381434e-6 
-2.049813263230565e-5 
-5.487429914176846e-5 
-0.0003546321144435232 
4.058702199351822e-6 
-6.461622452647767e-6 
-7.516808411636612e-6 
0.00042751896580089927 
0.31779521215888745 
3.217776714324797e-7 
-2.815881896969431e-5 
0.0005902838069952844 
0.06154168382105065 
-4.3374017109828985e-6 
-1.9097435646410006e-5 
-0.0003613800455575955 
-1.215433793118315e-5 
-3.6519529054693233e-6 
-0.0003694678420588701 
0.00013205639532260112 
-9.145144951817509e-7 
-1.528521484684571e-5 
-0.0003924506331269584 
0.011541318706346487 
-5.78971941817392e-6 
-1.6915360576976605e-5 
-7.162884570730988e-7 
0.0002918338603775033 
0.10579666057398945 
-4.087390815430515e-6 
-1.0374662580341868e-5 
-0.00014195377989702186 
0.001167134863014354 
0.00038342118192640813 
0.00015575667131158873 
-1.351655453968715e-5 
-0.0007873349361035319 
0.37773568578073613 
-0.0005937012551003664 
2.1027739829552756e-6 
-4.991770142601396e-7 
1.7670750691993565e-5 
0.0003884905247378773 
-9.55269265819664e-5 
-5.689581625985351e-6 
-3.306307499979076e-5 
-2.3909322358957657e-5 
0.00020843320197075235 
0.02560869270950962 
2.6727496869989837e-5 
-8.520711753206855e-5 
-0.0012220820413232684 
-3.5661018360853715e-6 
1.4897123791336002e-5 
-0.00011296660316607441 
0.00027286996458975477 
1.5474457603236064e-6 
-8.937960186947316e-6 
1.627093198215304e-5 
-0.00028311877177992985 
0.013520064995761435 
3.6028229200752404e-6 
0.00020239146946725804 
1.0966576687229349e-5 
5.740629428279824e-5 
-0.00030990627749599334 
0.00014722630358334965 
-0.0002469491016260795 
2.902940894669459e-6 
-4.996022534596727e-6 
-4.2163527392773105e-5 
0.010691017664590437 
6.110758872294754e-6 
-0.0005033610084403336 
-0.00015015209372752373 
0.03332786655554168 
-7.779974512176414e-6 
-5.116977603863201e-5 
-1.0156462101788548e-5 
1.9488694635151666e-5 
0.005643288098627412 
0.005857888354926996 
-0.00027749547071481196 
1.1289297383765708e-5 
-9.818711493068637e-5 
0.2745944537763222 
-6.694385977579e-6 
-0.00021477498140575355 
-0.001514901721468073 
6.384333648238975e-7 
-4.027691409257823e-6 
0.08116469080813342 
-1.5960353043057251e-6 
1.063591368969554e-6 
-0.00015097861572898786 
-0.0012516296049144965 
-5.811928772217582e-6 
-9.253259646583923e-6 
-0.0006842296005926154 
0.00039916804865795336 
-4.614672090065397e-6 
-3.677901693916155e-5 
-0.0005366403967913099 
0.000692910658544965 
-8.87654975022053e-6 
2.066767733247335e-6 
-0.0009022457878257634 
0.6738523449354779 
-3.2030442340643138e-6 
-6.610195680064953e-5 
-5.445280933566927e-6 
0.0002500247852406303 
0.00014728134865901968 
-3.0278128000021123e-7 
2.1071210735047175e-5 
-9.981759291205181e-5 
-1.4184672443281948e-6 
2.4210677327713855e-6 
5.395977936112341e-5 
-0.0008572343522851229 
1.1595314703174603e-5 
-5.470115963555129e-6 
-0.00034401352984411086 
-0.0001505255400675291 
2.067926591351016e-6 
-1.6249806903454e-5 
3.6086057517153476e-6 
-0.0004451571297761709 
-7.606877924276487e-5 
-1.9801473285954528e-6 
-0.0001249663189721717 
0.0002245602097674736 
2.767867290828846e-7 
-9.867006227896991e-6 
-1.838093138011882e-5 
0.000422454361626776 
0.004287076134289061 
-4.703218759282196e-6 
-5.146095152878908e-6 
0.011743583891064484 
0.0001257776936355795 
-3.328733300528093e-5 
8.631794312142482e-5 
0.21439157269166464 
-1.5744886661122965e-6 
2.575472288388443e-5 
-5.343236854399256e-5 
0.04406481083612854 
-1.1845104090617694e-5 
-0.0003469691396140399 
-1.1879343335420755e-5 
-1.8597317271487214e-6 
1.35057044427442e-5 
3.7554880876780765e-5 
-0.00030606391502114607 
-3.5454750320644466e-5 
8.05677416551644e-7 
0.0004018387558070452 
0.07155260793138316 
-4.829976192472354e-6 
-1.0640870960912764e-5 
-2.7975469467750565e-6 
0.0010841663009069874 
0.17310417747396126 
-1.3572598625004201e-5 
-3.4108559096327306e-5 
-0.0010336741777249732 
-3.953649998822553e-5 
-3.252464744303373e-7 
-0.00029781437591959496 
0.131924116660588 
1.7456649079701462e-6 
-2.4507577647602915e-5 
-2.310124517529987e-5 
-9.645449518019052e-5 
3.2718894873205974e-5 
-3.55462799297039e-6 
3.192773712442304e-5 
6.98671629739307e-5 
8.782766752277467e-6 
1.7344037459035872e-5 
-3.5711383178883935e-6 
7.348529945776826e-8 
0.000315265805841686 
0.27591346420156865 
-1.6770180042980145e-5 
1.3934199920012242e-5 
0.0003368654976260214 
0.00193046660597326 
2.129295421366216e-6 
0.0001927285980194339 
0.001184623164680576 
3.0904428813426215e-6 
-5.2149605498411986e-6 
-3.751169884473324e-6 
-0.00211713647364945 
0.00803974594229869 
1.4474897617894058e-5 
-3.555700588789052e-5 
0.0001584948421298059 
1.1205557644121887e-5 
-2.1483806916105634e-6 
0.00028659852209186653 
0.07433931366670071 
-6.926885246105398e-6 
5.3179966844511455e-5 
0.000374734534352093 
0.4075949396556771 
-5.818184551715259e-6 
-0.0001586739688606909 
-6.869454239071782e-5 
-4.509463248105778e-5 
3.019140696683163e-6 
9.262132495880364e-7 
6.63392865874045e-5 
-3.937105140992132e-5 
7.794262598264716e-8 
-5.781648515381464e-5 
-0.0001749815507522364 
-1.2406022106423864e-6 
-7.906553000664929e-6 
-4.156415759536315e-6 
0.00018194631135246315 
-0.0016914094707153027 
-2.505669552350411e-6 
0.0004824580341878827 
5.953871094035326e-6 
1.9382343168144294e-5 
3.434397141111375e-5 
0.009150759650642989 
-1.2399251877332116e-5 
5.787495046645659e-6 
-0.00017504282690398177 
-8.095343624749957e-5 
5.46389394832284e-6 
0.00043894415730680645 
3.7823487663692726e-5 
-0.001776553271763829 
0.007652144176430261 
7.371489148037939e-7 
-2.2420769060953168e-5 
-0.0008230179709095763 
-7.977959667859945e-7 
1.7470220886222274e-5 
0.0002058992865233001 
0.0002980530351867758 
-0.0006216252148325169 
0.10946504945625757 
-1.495104969374768e-5 
-6.72583014091111e-5 
8.733423944325613e-5 
-4.999768153779582e-5 
3.3343491103935116e-5 
-5.703137124308973e-5 
8.723125198250004e-6 
9.721788411605924e-6 
-4.512753450671554e-5 
-6.485874860864192e-6 
-4.053865503437852e-6 
1.5161807219408634e-5 
-7.547482811851376e-5 
1.446130082965585e-5 
5.781160273412117e-6 
7.218870315867071e-5 
0.011484867584759851 
1.8881588400853589e-6 
2.0028180147370734e-5 
0.00030124893960119036 
0.06103661778453834 
1.583805595987083e-6 
2.3377535175811787e-6 
-0.00043170869506365626 
0.0002824264540657729 
2.3923496085552528e-5 
-0.003114443461195628 
0.0025229234546869476 
-1.5829624980033983e-5 
-7.86663862281931e-6 
0.0001755316932581731 
0.002018543421473942 
0.00020769898198773177 
-1.6876568944143543e-5 
-0.00014518917865341224 
-6.075302357481975e-6 
-8.782929289432503e-6 
0.0005322461571128236 
1.0309439046585015e-5 
0.00033307385735810945 
0.004056386917597436 
-4.2699473060985927e-7 
2.124616940703911e-5 
0.0001577002732467819 
-0.0002934015870616391 
-5.9518431149541194e-5 
5.8409085528003995e-6 
1.4737703787753966e-5 
-6.659457848223613e-6 
-3.055035438163358e-5 
-0.0001451349693229715 
-3.5232859737758054e-5 
-7.795657967136748e-5 
-0.00047982991155385993 
-1.0198074799322323e-6 
-2.253051417845446e-5 
0.00021127050072844875 
-0.005749002500134356 
-1.2267004933384043e-6 
-1.7023050392046214e-5 
1.076062830580459e-6 
1.313617471699623e-5 
0.006902078726335212 
-1.0879760668712261e-6 
-9.500248479068603e-6 
-1.2587574162077643e-6 
0.0007901470014848661 
0.5579535779821599 
-0.00014820214667228136 
2.6475686711451856e-5 
-1.2188190492106472e-6 
7.303787351279702e-6 
2.643581224578803e-5 
-0.0005996457188081598 
-3.960401411759647e-5 
4.922608196731919e-6 
-0.0001727299559174856 
9.574027076563229e-5 
6.353378846012321e-7 
1.2862309538850482e-5 
-3.392122812123251e-5 
-0.0002005028568374087 
-0.0008157573807158044 
-4.012252489911274e-6 
-0.0003901549888994402 
-1.487438409870458e-6 
4.696084357342365e-6 
2.6331315260898593e-5 
-6.440942896447004e-5 
2.365953505251313e-6 
4.825568882044055e-6 
7.096605981367416e-6 
1.5006985548891078e-5 
-2.436684630854839e-5 
-0.0018580917719146902 
0.00016598129723739393 
-1.548529577356084e-5 
0.06581542280227155 
-1.3826053503200862e-5 
0.10131123065535545 
-1.532222429713222e-5 
1.861629151161922e-5 
0.00023318807962652676 
0.0010503342127879936 
-2.1040078606004805e-6 
-2.2784756707714756e-5 
0.0001765963533800211 
-0.0014447046868895591 
-3.016321593751784e-6 
0.0010248462408987673 
1.0243549036970966e-5 
-6.097671295577337e-6 
0.30699535461449384 
-8.485856044324815e-6 
0.0008799121272756791 
2.7169646536266083e-6 
6.486967817344182e-6 
-4.3686964569368505e-5 
0.0009225771020366478 
0.00012421730914993886 
-0.0017960329033147998 
0.4793598507362641 
-1.3495554036487695e-5 
-0.00039322553085797745 
-0.000332210967851665 
3.689267722718279e-7 
2.301005157131099e-6 
0.0002713406168308708 
0.09103140884330577 
-3.0202536087114547e-6 
-2.357615689542312e-5 
0.0596355706216671 
-8.68356414502158e-6 
-0.0005625026106712101 
0.02190095212663943 
-6.402762247488336e-6 
-1.426227280834128e-5 
2.9519336168717087e-6 
-2.768702145274032e-5 
-0.0017991154746041583 
0.00031637292217946396 
1.0155803900862897e-5 
-4.6188152574069493e-5 
0.00926758812184305 
4.740805030861299e-6 
-3.0126632485422274e-5 
0.00015905203728721994 
0.03865349205618995 
-2.7788152459107426e-6 
0.00022981148530886873 
0.00030680365015073785 
7.624057503275567e-6 
-5.421039042635756e-6 
2.104966842081493e-5 
0.00018554606561236938 
1.1244432818084654e-6 
2.3876568860099998e-6 
-2.80353514329007e-5 
-0.00042178538250092827 
0.003742526345985783 
-2.5905185995268835e-6 
2.180530242687536e-5 
0.0001889144317418507 
0.008795176037329626 
5.504933648888709e-6 
0.19733921978318555 
1.7727620651612388e-5 
-0.00013651044426006817 
-7.286055986849162e-5 
1.1559725428367148e-6 
4.010550829110693e-5 
1.7771155263337587e-5 
-0.00010139995854318978 
-7.654320572241322e-7 
2.5464339986873263e-6 
3.935025772392651e-5 
8.683929892374281e-6 
0.34974650172982386 
-1.2076952024428753e-6 
4.3584668822618146e-5 
0.0059171505778833795 
0.0023849001683738007 
4.762691323363765e-6 
-0.00015447058479838667 
-2.6534337642604197e-5 
-0.0005856094848581615 
-1.0734955703874027e-5 
1.8009973023056845e-5 
0.00024428811700022093 
4.161415688997457e-5 
2.3877188424852163e-5 
-4.6514740910003416e-5 
3.0167210656900764e-6 
-0.0002561227436940279 
0.5434667937769615 
1.1484340121986608e-7 
5.5365763647148245e-6 
-0.00013494568754937483 
0.0006683285944446398 
-5.894128260259615e-7 
-3.6760765362654954e-5 
-3.0247996272707277e-5 
-2.772333599475081e-5 
5.7385331003639835e-5 
0.00038867196971784334 
8.672484154614804e-5 
-0.0009369627144716203 
0.4209102153321309 
0.2376022139550584 
0.3549970957585073 
3.111077514500786e-6 
1.2892585632081125e-5 
1.0741579074676525e-6 
7.583926662534603e-5 
-8.022774746802349e-5 
-5.3926754582051125e-5 
0.0009097556168130914 
0.0026694648331325238 
-0.003830894148122449 
0.004017471980972055 
0.009158273466416813 
0.013694856968341966 
1.700927726723734e-5 
-2.8634544135781542e-5 
7.69199989136906e-6 
2.5603846310947292e-5 
-7.360087764436768e-5 
9.876102952299877e-6 
-1.0170593601602128e-5 
-0.0007686680320854513 
0.0003007860639217637 
0.5047216956008269 
0.284692722284991 
8.542193657887359e-7 
-2.245301264489485e-6 
4.856021208489612e-5 
-2.788612300247248e-5 
-0.002026283253703356 
0.0026675205463483898 
0.016927885040645196 
0.03473262990476924 
0.03546711175664773 
0.029688164733229536 
0.012962977941669075 
-3.0080779968086764e-5 
4.10118662961651e-5 
-1.3538600861635014e-5 
4.109057324387489e-5 
-0.00014434666990387562 
1.652807303686635e-5 
4.1432286134912767e-5 
-4.6553349983866317e-5 
0.0003984748141243951 
-0.00037724696223177725 
-0.0001420045344507319 
-1.1999846356370973e-5 
-6.500929313446039e-6 
2.2168562097808828e-5 
1.0295859525242815e-5 
4.540177788139874e-6 
-2.0010626119160096e-5 
-2.024824714383064e-6 
3.5472227278293864e-5 
0.00028204701811162554 
-5.588392644939095e-5 
9.427173660476324e-6 
9.438950318393163e-7 
-1.0092386861834336e-6 
9.83597654280784e-6 
4.765451499052885e-5 
2.824540810071952e-5 
-2.998131964712369e-5 
-0.00017732550235592735 
4.986356673182731e-7 
-4.319473702798583e-7 
8.00100278510643e-6 
6.6598725659094295e-6 
-2.307282722287112e-6 
-1.77555249006578e-5 
1.6049714098245933e-5 
-8.72169297050182e-5 
6.813177852941368e-5 
8.738714062795283e-5 
0.004802930504247713 
0.002593727957279349 
-0.0005160643460485456 
1.4005682240879991e-5 
-4.165703720194722e-5 
-1.796683247980209e-5 
-5.233613837005929e-6 
-3.9556025052365834e-5 
0.00048139240817147814 
-4.584629819134489e-6 
5.905227769551549e-6 
-5.0959333201436e-6 
-6.53830622483194e-7 
5.974858280371277e-6 
-3.238574718799949e-6 
5.270743014710266e-6 
4.547286577632835e-6 
-5.184480514668095e-5 
-0.0002066195177445878 
0.00023973026357631102 
0.00010305140177323846 
5.540422092485462e-5 
1.403807446557733e-5 
8.931431279988702e-5 
5.3093071419740105e-6 
-1.0143245497926324e-5 
3.99748839478124e-6 
3.073073933294889e-5 
-4.326124888829224e-5 
5.81425633029947e-5 
-4.825693078141616e-5 
0.0003485556340625413 
5.909638158378616e-6 
4.441547613007602e-6 
8.98125471624538e-5 
0.00011240766347859842 
-4.202092552774199e-6 
-3.41229671897899e-5 
-0.00017586532400868955 
-0.00013573593530119118 
-3.916078130763099e-6 
-9.88060664014734e-6 
2.2114672594627953e-6 
5.180271600823449e-6 
4.1285013144748746e-5 
3.1934320420413716e-5 
6.702338067161012e-5 
-4.0320020550421e-6 
-4.188376445686665e-5 
3.5828481238275104e-5 
-2.1391601608323267e-5 
0.00010089681097110749 
-0.00034030936440519174 
2.355730001465042e-5 
-6.416754010700167e-6 
8.22994932845059e-6 
-3.257315955219127e-6 
1.7608224589844858e-5 
-5.463870966883171e-5 
-0.00022520551121777666 
0.0001556980421410366 
-4.166679104411884e-6 
1.8260037269462325e-7 
-3.4375728039371905e-7 
-2.2330890636322064e-6 
6.9818629506046906e-6 
6.12051520925942e-6 
-7.674928099993719e-5 
6.870675418346067e-5 
-0.00018095561005628512 
0.001054289456930274 
-4.676950129402973e-5 
-1.4022908700001947e-5 
-2.78894511567418e-6 
1.4062510509792273e-5 
-5.484397161820984e-6 
-0.00042676907629142204 
0.0003656126005653207 
0.00048638799116389956 
-0.0002954441961505162 
0.00011576108157906436 
0.0011131281837321544 
-8.758492327313826e-6 
8.119290087615253e-6 
4.670436800598091e-6 
0.004183409472280674 
0.0036305520656949946 
-3.9648316107268905e-5 
4.4982231564969474e-5 
-0.000697084264848091 
1.2254497635929202e-5 
-7.068119828402459e-6 
-4.562223168902397e-5 
1.3661019019557805e-6 
4.694823082786181e-6 
0.00044098348063641336 
-0.00047517997930953787 
-6.598514691110967e-5 
0.0007823484176975899 
-6.390568602695431e-5 
-0.00043551552506093313 
-2.878784093776429e-6 
-2.1085746190207726e-8 
1.1761521006128823e-6 
1.5325722834779797e-5 
-3.6879521149416623e-7 
2.2106620366908644e-6 
-0.0003543237704338595 
3.278479999198972e-5 
-9.756285857072761e-5 
6.112691450106543e-5 
4.838173758136956e-5 
6.392726871522535e-5 
3.3203491214841234e-6 
-5.61308206425323e-6 
5.589790712824473e-6 
-2.246937162150291e-5 
-1.0049869947782897e-5 
3.8298862758585723e-7 
3.3233340106370504e-6 
2.4073698960305136e-5 
5.4008947882450674e-5 
0.00020584501748428306 
-5.112043480023543e-5 
0.00033496163535727525 
-5.122469513362302e-6 
2.813605533882998e-6 
6.489125699309015e-5 
6.81006931033344e-5 
8.754897099756662e-5 
-6.96779167222496e-5 
-0.00027571708342984574 
9.213898266661242e-5 
8.045618635443227e-5 
-0.00010680621978116008 
-5.205128679734142e-6 
-6.768508997588438e-7 