# vtk DataFile Version 3.0 
Unstructured Grid 
ASCII 
DATASET UNSTRUCTURED_GRID
POINTS 2173 float 
-0.5 -0.5 0  
0.5 -0.5 0  
0.5 0.5 0  
-0.5 0.5 0  
-0.475 -0.5 0  
-0.45 -0.5 0  
-0.425 -0.5 0  
-0.4 -0.5 0  
-0.375 -0.5 0  
-0.35 -0.5 0  
-0.325 -0.5 0  
-0.3 -0.5 0  
-0.275 -0.5 0  
-0.25 -0.5 0  
-0.225 -0.5 0  
-0.2 -0.5 0  
-0.175 -0.5 0  
-0.15 -0.5 0  
-0.125 -0.5 0  
-0.1 -0.5 0  
-0.075 -0.5 0  
-0.05 -0.5 0  
-0.025 -0.5 0  
-1.3761214e-12 -0.5 0  
0.025 -0.5 0  
0.05 -0.5 0  
0.075 -0.5 0  
0.1 -0.5 0  
0.125 -0.5 0  
0.15 -0.5 0  
0.175 -0.5 0  
0.2 -0.5 0  
0.225 -0.5 0  
0.25 -0.5 0  
0.275 -0.5 0  
0.3 -0.5 0  
0.325 -0.5 0  
0.35 -0.5 0  
0.375 -0.5 0  
0.4 -0.5 0  
0.425 -0.5 0  
0.45 -0.5 0  
0.475 -0.5 0  
0.5 -0.475 0  
0.5 -0.45 0  
0.5 -0.425 0  
0.5 -0.4 0  
0.5 -0.375 0  
0.5 -0.35 0  
0.5 -0.325 0  
0.5 -0.3 0  
0.5 -0.275 0  
0.5 -0.25 0  
0.5 -0.225 0  
0.5 -0.2 0  
0.5 -0.175 0  
0.5 -0.15 0  
0.5 -0.125 0  
0.5 -0.1 0  
0.5 -0.075 0  
0.5 -0.05 0  
0.5 -0.025 0  
0.5 -1.3761214e-12 0  
0.5 0.025 0  
0.5 0.05 0  
0.5 0.075 0  
0.5 0.1 0  
0.5 0.125 0  
0.5 0.15 0  
0.5 0.175 0  
0.5 0.2 0  
0.5 0.225 0  
0.5 0.25 0  
0.5 0.275 0  
0.5 0.3 0  
0.5 0.325 0  
0.5 0.35 0  
0.5 0.375 0  
0.5 0.4 0  
0.5 0.425 0  
0.5 0.45 0  
0.5 0.475 0  
0.475 0.5 0  
0.45 0.5 0  
0.425 0.5 0  
0.4 0.5 0  
0.375 0.5 0  
0.35 0.5 0  
0.325 0.5 0  
0.3 0.5 0  
0.275 0.5 0  
0.25 0.5 0  
0.225 0.5 0  
0.2 0.5 0  
0.175 0.5 0  
0.15 0.5 0  
0.125 0.5 0  
0.1 0.5 0  
0.075 0.5 0  
0.05 0.5 0  
0.025 0.5 0  
1.3761214e-12 0.5 0  
-0.025 0.5 0  
-0.05 0.5 0  
-0.075 0.5 0  
-0.1 0.5 0  
-0.125 0.5 0  
-0.15 0.5 0  
-0.175 0.5 0  
-0.2 0.5 0  
-0.225 0.5 0  
-0.25 0.5 0  
-0.275 0.5 0  
-0.3 0.5 0  
-0.325 0.5 0  
-0.35 0.5 0  
-0.375 0.5 0  
-0.4 0.5 0  
-0.425 0.5 0  
-0.45 0.5 0  
-0.475 0.5 0  
-0.5 0.475 0  
-0.5 0.45 0  
-0.5 0.425 0  
-0.5 0.4 0  
-0.5 0.375 0  
-0.5 0.35 0  
-0.5 0.325 0  
-0.5 0.3 0  
-0.5 0.275 0  
-0.5 0.25 0  
-0.5 0.225 0  
-0.5 0.2 0  
-0.5 0.175 0  
-0.5 0.15 0  
-0.5 0.125 0  
-0.5 0.1 0  
-0.5 0.075 0  
-0.5 0.05 0  
-0.5 0.025 0  
-0.5 1.3761214e-12 0  
-0.5 -0.025 0  
-0.5 -0.05 0  
-0.5 -0.075 0  
-0.5 -0.1 0  
-0.5 -0.125 0  
-0.5 -0.15 0  
-0.5 -0.175 0  
-0.5 -0.2 0  
-0.5 -0.225 0  
-0.5 -0.25 0  
-0.5 -0.275 0  
-0.5 -0.3 0  
-0.5 -0.325 0  
-0.5 -0.35 0  
-0.5 -0.375 0  
-0.5 -0.4 0  
-0.5 -0.425 0  
-0.5 -0.45 0  
-0.5 -0.475 0  
-0.002115384 -0.00023065208 0  
-0.20714286 -0.20714286 0  
0.20714286 -0.20714286 0  
0.20714286 0.20714286 0  
-0.20714286 0.20714286 0  
-0.28155318 -0.0017231192 0  
0.0017231192 -0.28155318 0  
0.28155318 0.0017231192 0  
-0.0017231192 0.28155318 0  
0.3319978 -0.33098683 0  
0.33098683 0.3319978 0  
-0.3319978 0.33098683 0  
-0.33098683 -0.3319978 0  
-0.14015679 -0.06698606 0  
0.06698606 -0.14015679 0  
0.14015679 0.06698606 0  
-0.06698606 0.14015679 0  
-0.1387125 -0.34573975 0  
0.34573975 -0.1387125 0  
0.1387125 0.34573975 0  
-0.34573975 0.1387125 0  
0.14046866 -0.34602854 0  
0.34602854 0.14046866 0  
-0.14046866 0.34602854 0  
-0.34602854 -0.14046866 0  
-0.05869875 -0.16617337 0  
0.18217777 -0.061504476 0  
0.062312964 0.18362015 0  
-0.18362015 0.062312964 0  
-0.034321424 -0.38563195 0  
0.38563195 -0.034321424 0  
0.034321424 0.38563195 0  
-0.38563195 0.034321424 0  
0.39586002 -0.2428538 0  
0.2428538 0.39586002 0  
-0.39586002 0.2428538 0  
-0.2428538 -0.39586002 0  
0.23688246 -0.38952246 0  
0.38952246 0.23688246 0  
-0.23688246 0.38952246 0  
-0.38952246 -0.23688246 0  
-0.24287231 -0.09948847 0  
0.09948847 -0.24287231 0  
0.24287231 0.09948847 0  
-0.09948847 0.24287231 0  
-0.11560815 -0.24300627 0  
0.24300627 -0.11560815 0  
0.11560815 0.24300627 0  
-0.24300627 0.11560815 0  
-0.40192315 -0.4008276 0  
0.4008276 -0.40192315 0  
0.40192315 0.4008276 0  
-0.4008276 0.40192315 0  
0.06409326 -0.40289903 0  
0.40289903 0.06409326 0  
-0.06409326 0.40289903 0  
-0.40289903 -0.06409326 0  
0.2962961 -0.23982804 0  
0.23982804 0.2962961 0  
-0.2962961 0.23982804 0  
-0.23982804 -0.2962961 0  
-0.28087237 -0.21196799 0  
0.21196799 -0.28087237 0  
0.28087237 0.21196799 0  
-0.21196799 0.28087237 0  
-0.0901279 0.007867504 0  
-0.05002927 -0.07494272 0  
0.0873353 -0.009871756 0  
0.0071518295 0.09216282 0  
-0.14120433 -0.1484696 0  
-0.14581114 0.13960092 0  
0.1458264 -0.14505939 0  
0.13960092 0.14581114 0  
0.41838804 -0.3182741 0  
0.3182741 0.41838804 0  
-0.41838804 0.3182741 0  
-0.3182741 -0.41838804 0  
0.32118136 -0.41712493 0  
0.41712493 0.32118136 0  
-0.32118136 0.41712493 0  
-0.41712493 -0.32118136 0  
-0.19707234 -0.014843048 0  
0.018050108 -0.20183705 0  
0.19707234 0.014843048 0  
-0.014843048 0.19707234 0  
-0.10938372 -0.41847488 0  
0.41847488 -0.10938372 0  
0.10938372 0.41847488 0  
-0.41847488 0.10938372 0  
0.15773043 -0.4267032 0  
0.4267032 0.15773043 0  
-0.15773043 0.4267032 0  
-0.4267032 -0.15773043 0  
-0.3204562 -0.07174808 0  
0.07174808 -0.3204562 0  
0.3204562 0.07174808 0  
-0.07174808 0.3204562 0  
0.02801032 -0.07269879 0  
-0.31817523 0.069836795 0  
-0.069836795 -0.31817523 0  
0.31817523 -0.069836795 0  
0.069836795 0.31817523 0  
0.43106207 -0.17757268 0  
0.17757268 0.43106207 0  
-0.43106207 0.17757268 0  
-0.17757268 -0.43106207 0  
0.0703783 0.071201205 0  
-0.051593844 0.064346604 0  
0.099701226 -0.08333426 0  
0.2863281 -0.17248559 0  
0.17248559 0.2863281 0  
-0.2863281 0.17248559 0  
-0.17248559 -0.2863281 0  
-0.2341888 0.04979648 0  
-0.049194112 -0.231281 0  
0.23358595 -0.04946041 0  
0.04979648 0.2341888 0  
-0.009939441 -0.13691185 0  
-0.26560438 -0.17864102 0  
0.17864102 -0.26560438 0  
0.26560438 0.17864102 0  
-0.17864102 0.26560438 0  
0.013302229 -0.43510666 0  
0.43510666 0.013302229 0  
-0.013302229 0.43510666 0  
-0.43510666 -0.013302229 0  
0.09432827 0.114700764 0  
-0.11539384 0.093188405 0  
-0.3413634 -0.005100272 0  
0.005100272 -0.3413634 0  
0.3413634 0.005100272 0  
-0.005100272 0.3413634 0  
-0.19817708 -0.3508856 0  
0.3508856 -0.19817708 0  
0.19817708 0.3508856 0  
-0.3508856 0.19817708 0  
-0.34100306 -0.27216324 0  
0.27216324 -0.34100306 0  
0.34100306 0.27216324 0  
-0.27216324 0.34100306 0  
-0.20269383 -0.14403741 0  
0.14393912 -0.2028372 0  
0.2026342 0.14393856 0  
-0.14393856 0.2026342 0  
-0.1030633 -0.10524017 0  
-0.4394695 -0.104853734 0  
0.104853734 -0.4394695 0  
0.4394695 0.104853734 0  
-0.104853734 0.4394695 0  
-0.44156647 -0.44156647 0  
0.44156647 -0.44156647 0  
0.44156647 0.44156647 0  
-0.44156647 0.44156647 0  
-0.2683254 -0.44465622 0  
0.44465622 -0.2683254 0  
0.2683254 0.44465622 0  
-0.44465622 0.2683254 0  
0.2654342 -0.4435478 0  
0.4435478 0.2654342 0  
-0.2654342 0.4435478 0  
-0.4435478 -0.2654342 0  
-0.27373606 -0.34534052 0  
0.34534052 -0.27373606 0  
0.27373606 0.34534052 0  
-0.34534052 0.27373606 0  
-0.05307205 -0.4481981 0  
0.4481981 -0.05307205 0  
0.05307205 0.4481981 0  
-0.4481981 0.05307205 0  
-0.35614902 -0.19390328 0  
0.19390328 -0.35614902 0  
0.35614902 0.19390328 0  
-0.19390328 0.35614902 0  
-0.14022674 -0.012452113 0  
0.14171903 0.011271359 0  
-0.01125192 0.14089845 0  
-0.19556868 -0.06932378 0  
0.070511825 -0.19668652 0  
0.19556868 0.06932378 0  
-0.06932378 0.19556868 0  
-0.24951252 -0.039742906 0  
0.04037078 -0.2503529 0  
0.24951252 0.039742906 0  
-0.039742906 0.24951252 0  
0.44100407 -0.36164257 0  
0.36164257 0.44100407 0  
-0.44100407 0.36164257 0  
-0.36164257 -0.44100407 0  
-0.4451273 -0.36589316 0  
0.36589316 -0.4451273 0  
0.4451273 0.36589316 0  
-0.36589316 0.4451273 0  
0.1121834 -0.30242515 0  
0.30242515 0.1121834 0  
-0.1121834 0.30242515 0  
-0.30242515 -0.1121834 0  
-0.115146436 -0.19087775 0  
0.19190264 -0.11309679 0  
0.11520548 0.19263776 0  
-0.19263776 0.11520548 0  
-0.08287991 -0.37025127 0  
0.37025127 -0.08287991 0  
0.08287991 0.37025127 0  
-0.37025127 0.08287991 0  
0.23791528 -0.24381089 0  
0.24381089 0.23791528 0  
-0.23791528 0.24381089 0  
-0.24381089 -0.23791528 0  
-0.44626984 -0.21174923 0  
0.21174923 -0.44626984 0  
0.44626984 0.21174923 0  
-0.21174923 0.44626984 0  
0.35174853 -0.37705234 0  
0.37705234 0.35174853 0  
-0.35174853 0.37705234 0  
-0.37705234 -0.35174853 0  
-0.048605647 -0.023262763 0  
-0.1551113 -0.21381997 0  
0.21381997 -0.1551113 0  
0.1551113 0.21381997 0  
-0.21381997 0.1551113 0  
-0.29403278 -0.30027482 0  
0.30027482 -0.29403278 0  
0.29403278 0.30027482 0  
-0.30027482 0.29403278 0  
0.12173745 -0.390654 0  
0.390654 0.12173745 0  
-0.12173745 0.390654 0  
-0.390654 -0.12173745 0  
-0.12236246 -0.2979882 0  
0.2979882 -0.12236246 0  
0.12236246 0.2979882 0  
-0.2979882 0.12236246 0  
-0.0945969 -0.046371013 0  
0.035276897 -0.027358124 0  
-0.0076714605 0.051946 0  
-0.30809116 -0.17165439 0  
0.17165439 -0.30809116 0  
0.30809116 0.17165439 0  
-0.17165439 0.30809116 0  
-0.16592422 -0.10879113 0  
0.10700909 -0.1687818 0  
0.16864619 0.10664837 0  
-0.10664837 0.16864619 0  
-0.16784625 -0.38069874 0  
0.38069874 -0.16784625 0  
0.16784625 0.38069874 0  
-0.38069874 0.16784625 0  
-0.4563872 -0.05993889 0  
0.05993889 -0.4563872 0  
0.4563872 0.05993889 0  
-0.05993889 0.4563872 0  
0.31103167 -0.37412483 0  
0.37412483 0.31103167 0  
-0.31103167 0.37412483 0  
-0.37412483 -0.31103167 0  
-0.3909646 -0.012754724 0  
0.012754724 -0.3909646 0  
0.3909646 0.012754724 0  
-0.012754724 0.3909646 0  
0.44915667 -0.21679194 0  
0.21679194 0.44915667 0  
-0.44915667 0.21679194 0  
-0.21679194 -0.44915667 0  
0.045831423 0.12033131 0  
-0.12662303 0.045442794 0  
-0.3107799 -0.37355793 0  
0.37355793 -0.3107799 0  
0.3107799 0.37355793 0  
-0.37355793 0.3107799 0  
0.04152367 0.021693805 0  
-0.08040017 -0.2675595 0  
0.26794365 -0.08044455 0  
0.080500565 0.2680441 0  
-0.2680441 0.080500565 0  
-0.13753757 -0.45578164 0  
0.45578164 -0.13753757 0  
0.13753757 0.45578164 0  
-0.45578164 0.13753757 0  
-0.05507968 -0.12135967 0  
0.14172421 -0.09428923 0  
0.2571752 -0.19664502 0  
[...]
POINT_DATA 2173 
SCALARS T float 
LOOKUP_TABLE default 
-9.363760275791021e-19 
-5.63638158496975e-18 
-1.657552174732143e-19 
5.054105491231441e-19 
-7.690897844463883e-17 
-2.0708275357162384e-17 
1.0339043643416422e-16 
-2.2760748405011175e-16 
-4.996483885015281e-17 
2.8337902711733907e-16 
-1.7610211034098817e-16 
4.562890415657712e-16 
-7.906414127612928e-16 
4.780363534732597e-16 
2.1975055888746007e-16 
-2.7897589950998135e-16 
3.9870341136209613e-16 
1.2578240741197997e-16 
-6.360018285960616e-16 
2.3471645457502006e-16 
-1.4045468349417205e-16 
1.0477333884936265e-16 
-8.99710247394844e-16 
7.270004788602174e-16 
-3.882113306548843e-16 
-1.1694430168246849e-16 
1.2934280497023077e-15 
-2.960646556352002e-15 
-9.15793425807369e-16 
-3.963059998022986e-16 
-5.16088472866776e-16 
-1.5099396184073722e-16 
1.8490876172161071e-16 
-8.58657528274202e-17 
-1.542733911185004e-17 
-1.4903965193443779e-15 
-3.435897266604574e-16 
-2.669033406821919e-16 
6.339534151508196e-17 
1.2451540868329549e-17 
1.6213442619158606e-16 
4.148471394563887e-17 
-3.2715317485216356e-17 
2.368028914192744e-17 
4.117410678269237e-17 
-2.4924647409641737e-16 
1.1764527654943514e-16 
5.074867345602815e-17 
2.373806477799435e-16 
-2.040276721502533e-16 
8.011050292959932e-16 
-7.019801944805467e-16 
3.428962177079678e-16 
1.2819818035037326e-16 
7.870690475221999e-17 
-1.7337780115144145e-17 
1.1126183384181027e-16 
5.489067159576135e-18 
3.227020918814301e-17 
-1.8342123583926287e-17 
9.16153194376144e-18 
5.59161541460285e-18 
-1.1752434138444483e-17 
8.617890434995356e-18 
-5.2089055217861755e-18 
-1.775588236574535e-18 
1.835923357330496e-18 
-4.062739025697213e-18 
1.1480375746195679e-18 
1.9721121785027348e-19 
-2.0925321777326523e-18 
7.567376700951501e-18 
-3.3340315336460876e-18 
7.890198997665465e-18 
1.2443515743346229e-17 
-9.067160589239684e-18 
2.3692937630655825e-18 
2.6651794110600736e-18 
3.848389176663717e-18 
-1.910280833862304e-18 
1.8241725498805242e-18 
2.571217528341523e-18 
-2.748847240534704e-18 
7.303913272200497e-19 
2.3170743675736255e-18 
2.7581289971296303e-18 
-1.7070996991695202e-18 
-5.754443403086873e-18 
-3.5989107064329886e-18 
8.38290539826307e-18 
1.1186812685397476e-17 
-1.2450690561962567e-17 
1.2617545368444423e-17 
-3.0840547351161562e-18 
3.8135123479856885e-19 
8.75791091200857e-19 
-8.290820689939573e-19 
4.777178438242301e-18 
-6.384117129412245e-18 
1.950302870054682e-18 
7.160420512142872e-18 
-6.018917226749363e-18 
1.1293438887216624e-17 
-1.9899058366276218e-17 
1.9948841972048372e-17 
-2.2969779428228232e-17 
-2.575816116828026e-19 
-1.3944363354948053e-17 
1.1445428739869453e-17 
-2.4014264156339686e-17 
2.1621236056701918e-17 
1.0152064574494247e-17 
-3.2310776437720155e-17 
-2.2675440540384182e-17 
-1.4030673402762084e-17 
-4.6678618077789316e-17 
-4.344974259354749e-17 
-2.647502339525631e-17 
-4.250929139610062e-17 
-9.526980370227484e-18 
-3.818455420259509e-18 
6.612814610364076e-18 
9.895616103839408e-18 
5.631531267788664e-17 
2.2245321275311828e-17 
5.260278530387922e-17 
5.706741230708975e-17 
2.5640290359377575e-17 
1.3616589324720489e-17 
9.11077211488896e-17 
1.3660098385158888e-17 
8.554685322424818e-17 
-9.735251856985818e-18 
7.42252126446834e-17 
2.398460888481096e-18 
4.672698916603677e-17 
-2.3993450112180604e-17 
8.02037094002829e-17 
3.804089534313404e-17 
-9.625323009086227e-17 
-5.234989001762704e-18 
8.679941486912364e-17 
-1.8197819072633834e-16 
3.030569682920934e-16 
-3.008554376592926e-16 
-1.620473562995477e-16 
2.7800715322736053e-17 
-3.09989538586552e-16 
2.1684427976183363e-16 
-1.2453424011973262e-16 
-4.0214576746854014e-16 
3.01127577745031e-16 
-9.725753394529882e-16 
1.5548117513914944e-16 
-5.595401712085129e-16 
-2.2097834904422152e-16 
-5.598748361656199e-17 
-1.8393973971326004e-16 
-5.565691437583142e-17 
6.685606549626744e-17 
5.34946268175928e-7 
0.001039340504597801 
0.10650298312834956 
-1.5375610023790463e-6 
7.821540303070017e-6 
2.0660315554758137e-5 
-0.0011095934298487342 
0.049666053819389176 
-1.0987719554876939e-5 
0.000392419769032929 
1.6495091646100734e-6 
-2.8461634920670602e-5 
-9.48405978003218e-5 
0.0001336702837879165 
0.0016409427081279322 
0.0003391284386423807 
2.130457004920675e-5 
0.0011069066868545675 
0.0381595314019165 
-6.526811516546412e-6 
-7.177776059567939e-5 
-0.0012734998524284637 
-1.4887691345351422e-6 
-8.203644914044003e-6 
0.00025495804651512585 
-0.0022000589670962724 
0.3517724178207001 
-3.632920122624769e-6 
8.870549901515148e-5 
-0.0002550273681510904 
0.0012961268795251423 
1.5124779948753399e-6 
3.909641232410858e-5 
0.0005778761843357348 
4.6343145044203593e-7 
-6.237213478414182e-6 
0.00045598854084003275 
0.00023491810212657817 
-3.2325600810806974e-6 
-1.0254042617766028e-5 
-0.0001722936598634867 
-0.00023598119366560508 
0.00023626891950879298 
0.00011816218883236017 
-3.7621508863511435e-6 
-0.0006743817201048568 
0.7009088865465871 
-2.1164472954330332e-6 
1.9086473582122116e-5 
-0.0002193187011347713 
0.000675559729827413 
3.4641317258591495e-6 
-3.00505363754775e-5 
0.0011164673595763144 
-3.9699727425478665e-5 
-1.8273954406429687e-5 
6.822752892052772e-5 
0.01248977015364098 
-1.319959456845254e-6 
-4.271964585885734e-5 
0.00021530610729740288 
4.907767463779711e-5 
0.0027590787036748917 
-7.309515416836397e-7 
-1.2587683830955035e-6 
0.0002835697138362282 
-0.00042424549797396975 
0.002679047684013786 
3.8135058358705577e-6 
4.459935123983627e-5 
3.6695180413218944e-5 
0.17565563039309723 
-1.7424855440427151e-6 
0.0004726568136340027 
-3.063884450939852e-7 
-2.1315342043579947e-5 
-0.00020920694604664695 
-0.0010071676151613418 
1.922803432636889e-6 
-3.805997837264919e-5 
-0.0001696322289115009 
-0.00012587286741912645 
-0.0013311014920189413 
0.04065825569544988 
-1.0717481078273942e-5 
5.6790867853328416e-5 
0.0001839060244274885 
-1.960365420293218e-6 
-1.5311662214280546e-5 
-0.00038527607448213627 
-4.770437009419737e-7 
3.852212405592778e-6 
-0.0001626687248387283 
0.00018177545099931663 
-0.003482897368595379 
0.0001065115860541509 
3.0503136748048096e-5 
0.0009036346480411776 
6.346708157645635e-5 
-0.0012387523050329749 
0.11597008585469896 
-9.749682383225124e-7 
3.766327780439319e-5 
9.566575287332808e-6 
-1.2300600626889417e-5 
0.0010019217923763373 
1.9435493981417505e-6 
7.034839928753957e-6 
0.027818396821093334 
0.1566000157615649 
-6.161640089416716e-7 
-2.9377860282041706e-5 
0.0006124788894257153 
1.5544580230604275e-5 
-0.0021917885159832818 
0.40813073243935266 
-8.503611017620828e-6 
-0.00044868947154608956 
0.00014499954605762808 
0.0031757441156430193 
3.2587092331484596e-7 
-1.6976119272215478e-5 
0.0004524353838507169 
-5.416529058978301e-5 
7.389595284283222e-6 
1.4131157306630591e-5 
-9.880108198697723e-7 
6.166656187370304e-5 
0.00010690921373847646 
-0.0019705896197796326 
0.005622765003601288 
-2.416138119006536e-6 
0.0009745520087645536 
0.005674764523561543 
-2.3477043386611256e-7 
-4.9606265712540335e-5 
4.680834549941501e-5 
0.0011993782850722723 
4.499116593977929e-8 
-3.329353708045628e-5 
5.3547727846662505e-5 
0.03740676518620002 
-4.847751385039315e-6 
7.709599751804977e-6 
-0.0007516918689653777 
-0.00018144814275301453 
-0.0008061888959341981 
1.689588366662391e-6 
-9.477304104261713e-6 
-0.00011497857060329294 
0.00019858053522671021 
-5.485054258733068e-7 
7.515897132253231e-6 
0.0002688522457055259 
0.00047522581502981395 
3.2754942425386497e-6 
-1.985807813176801e-5 
-0.0002080055134667617 
-1.172403258071309e-6 
-2.9915149695423467e-5 
4.190188037194274e-5 
0.00022362432370298332 
0.002984111771794935 
-2.0842906307553795e-6 
-5.3481865582815e-6 
-0.00024230850524619452 
-9.329643642756035e-6 
-2.770860843191292e-6 
-5.84379410161266e-5 
-0.0003139367253817755 
0.0004690879994662681 
2.679354998733076e-6 
-2.933010535016037e-5 
0.00011627534521042956 
0.012905442251619915 
-2.545734694972078e-5 
0.0001111198325245792 
0.0030761423338209314 
0.0013473348180578987 
-1.0932362686681297e-5 
0.00016107244632868582 
0.0028903590573442174 
0.013755425775814168 
-9.82728975287058e-6 
0.0003663447180916369 
6.173460633486701e-6 
-2.2579554510748355e-5 
-7.886719627251464e-5 
-0.0001030035061786632 
7.965630561247638e-5 
1.5742920191029423e-6 
-2.284533726884888e-5 
-0.0002209064699445895 
-3.0499197839433777e-5 
-2.8014066869872927e-5 
-0.0001373947960143957 
-0.001161879686126205 
0.5988648221881222 
1.2969171954274e-6 
-2.111247504221636e-5 
-0.00024216871534901477 
0.010672346853904459 
-8.132150365507797e-7 
1.990249882743603e-5 
0.020033272498029407 
-1.4144093070589357e-6 
4.1444035647123686e-5 
-6.327660269879699e-5 
0.0001509872710290826 
0.00012237428862209141 
4.874464287661125e-6 
5.282883250443913e-6 
-0.00021137133279942205 
-2.905176887877316e-6 
1.3115141039403605e-5 
-0.0001700986359860189 
0.00022554653121737336 
-0.0008931837179795544 
0.4958421082598008 
6.587696292417427e-6 
6.601669332447502e-5 
0.00010509943899212589 
0.0008007600654849963 
-6.425483232444425e-6 
2.1048392451029803e-5 
0.0013384036433778444 
-5.519230749993493e-6 
-7.909386784553584e-6 
-0.00012020862306649328 
0.0016649514494475374 
0.2635999391881584 
-5.569197264615241e-6 
-6.002342427494902e-5 
8.573097580993928e-5 
0.00014525443904438937 
1.7657831964682838e-6 
2.340430800882516e-5 
0.0012078167509410158 
2.4518415318138834e-6 
-2.1890919555522895e-5 
-0.0006165842374707217 
0.02384083147990492 
-5.1769036544838255e-6 
5.214383065953731e-6 
0.00038407904353624504 
0.003077530956369513 
-1.5102300865730998e-6 
-1.7292645810834485e-6 
1.29772467009893e-5 
0.001001358169219809 
-4.440462620795365e-6 
-1.627102846108e-5 
-0.0003816416735005529 
4.5754058246496577e-7 
-1.3848751782282575e-5 
-0.0002576581219998221 
-0.000176995962392203 
0.0005316831213541265 
-8.19853598761582e-5 
-1.8491819781848497e-5 
-8.043230782903774e-5 
-2.090216180468155e-6 
-4.989991147738111e-5 
0.00019457471246864995 
-5.253215416081572e-6 
0.000310712956436837 
0.000154385302173852 
0.00031805892116172884 
-4.13884474201382e-6 
-1.930229457114552e-5 
5.540439944779096e-6 
0.0008683461064177805 
0.4668036636941816 
-2.497390236640521e-6 
-5.175118811179965e-5 
0.0003103509378080076 
1.3989667713924063e-5 
-7.076153810394727e-6 
-2.461540504839582e-5 
-0.0009832015767643177 
0.1841395435813833 
0.13349722773381065 
2.7152805383358333e-6 
-1.7970858637988952e-5 
-0.00015806171934409745 
0.044999368602585424 
0.00012891615169079485 
-0.0004610105558746374 
-0.00012394056451893215 
4.88880931844061e-7 
3.84227114863106e-5 
-2.7707499478253914e-5 
9.506699233628335e-6 
6.0231572225880495e-6 
-0.0001346137741091656 
0.00023703797181306264 
-8.017609032104162e-6 
3.886752137660318e-6 
-4.6939678352069225e-5 
0.000358455349160657 
3.860622106729738e-6 
1.0561275078303581e-5 
0.0010913632870811303 
0.0007847374352622339 
3.848054804477432e-6 
3.3185159369449225e-5 
0.03898884585541789 
0.0003725421203818112 
0.00336237681459424 
0.19746348115255805 
1.4588707572145217e-6 
0.00013490709128622085 
8.176201081418764e-6 
0.0007647896834557358 
0.12170386703788275 
1.0733087740231081e-6 
-7.61018386461286e-5 
0.00035957711473966463 
5.793027172551963e-6 
1.2930579671465307e-5 
0.004464550794810776 
0.0019801106738466102 
-0.003479798055307547 
-1.9803751707240565e-6 
-2.752569915483111e-6 
0.00010481717462039228 
0.00037731234323401064 
0.0008785075737516861 
1.0167603102464406e-6 
-3.281598279739971e-6 
-0.00012918466129555116 
-0.00010463656469969818 
0.0012907977469819975 
0.024443948555721684 
-8.885362589583736e-6 
0.00039079012713709465 
3.3920035413257214e-5 
-8.498295617389331e-6 
-2.4771424515424777e-5 
0.0026478186934797165 
0.00011785273274197561 
-2.839441555919835e-6 
8.602872084340707e-6 
-0.00017186284427146521 
0.0020694548021375947 
-3.064722975841677e-5 
-6.5245279791057325e-6 
-0.00045524835730769163 
-7.265840541887587e-6 
0.2137627080283504 
1.0768933662400577e-6 
0.000618813956423304 
1.146662306443162e-6 
-1.0268321398010135e-5 
0.00015128858913413386 
0.0012533358394735108 
0.007295931504045408 
-4.000671481825884e-6 
-2.6366678202497825e-5 
-0.00029857441657277055 
-5.416390807225914e-6 
-6.355480713631076e-6 
3.526943184591955e-5 
4.38201152291946e-6 
0.0014600342108375991 
2.0243978510976557e-6 
-1.9214979087157168e-6 
0.00016691099809482937 
-1.8232075222192606e-6 
-1.429908070642785e-5 
-8.677281783419262e-5 
8.771363701983917e-5 
-2.2565679927980385e-6 
-7.996289443306451e-6 
-4.598274678419762e-5 
-7.950138644852453e-5 
0.003189704071429493 
0.15335604717395937 
-4.422304631443153e-6 
0.00017821297527262058 
0.005477839467176493 
-7.4994019645762565e-6 
-3.268707460212899e-6 
1.6370322233182405e-5 
0.0002277043297367148 
0.0017922278107650176 
0.004130725154968692 
2.5596851738692885e-6 
-0.00014712949700315924 
0.0004960103676383258 
0.0004999048693849965 
-7.250369515845075e-6 
0.004823363336638227 
0.0008096132409004997 
0.0216116648699014 
2.1913077074546307e-6 
-1.9543200825707256e-5 
6.757812672637811e-5 
-2.878414622201816e-7 
-5.694094497513596e-5 
-0.0004656760099060096 
9.8044775860419e-7 
0.0005334656947100962 
0.0031522839571497077 
1.1891852162869929e-5 
1.8891635378304128e-5 
0.0008353554546561709 
-1.4328570513267434e-5 
7.055132497117101e-6 
0.00010849840021781077 
0.4386206246815808 
-2.465083059829681e-7 
2.9897805823619555e-5 
0.0016711274008365787 
1.979779083010965e-6 
1.572976209370556e-5 
0.002695557538372064 
-1.13000527362269e-6 
-4.0580475793906e-6 
5.336245604647354e-6 
2.119962038910245e-5 
0.0011475677117507297 
0.06994298724295293 
-2.73601169195757e-6 
1.1716312718428842e-5 
0.0008440704731697075 
-1.4873274733712236e-6 
6.363288176586853e-6 
0.0015753008129103943 
0.6750657943192231 
3.1513910205114246e-6 
7.83890444267776e-6 
0.0007848819202446775 
-3.340167736991669e-6 
1.820035093872621e-5 
0.000296817194444082 
0.0004708713164705681 
-5.449141418251886e-6 
-3.919087161751673e-6 
-2.769025625979199e-5 
0.0003802858953832475 
0.0522769531804355 
3.7534434767579486e-8 
-3.5911259172933636e-6 
2.7714134334631725e-5 
0.02983939460439765 
1.9774980986312896e-7 
1.3616149501823705e-5 
-3.5422732227936762e-6 
-3.889691143688847e-5 
0.00020229411242219175 
-1.4837772649095747e-6 
4.182233912619339e-6 
5.7793530369950846e-5 
4.353165907477596e-6 
8.254546141439426e-5 
7.050393536621673e-7 
-9.306015827188618e-6 
0.00018945979218690313 
0.00842753609049944 
-7.699975938759838e-6 
1.0958419463045655e-5 
0.00015279897133706522 
0.09882394935688467 
-4.832552972473263e-6 
-1.410623451646754e-5 
9.537201034482269e-5 
0.0005572613423869534 
7.550688795929156e-5 
-1.3519223865648965e-5 
-1.829377839032058e-5 
-0.0014942215070406837 
-0.0006320633081145736 
-0.0002274034694792433 
2.180658674003217e-6 
1.1728085461443439e-5 
0.021507104915981803 
2.3599581074124314e-6 
6.571559404435805e-6 
-0.0001867099824496829 
-0.0006514856982969547 
-1.2997248214369266e-5 
-4.845774458132949e-6 
4.733387187211965e-6 
0.00025094847632437564 
0.0008592349969919655 
7.842159353746012e-5 
0.3513135816537568 
0.611362840923257 
0.4435623289859757 
-1.4447744499902451e-6 
-5.444554908920891e-6 
7.277437698082126e-7 
5.111358522344237e-6 
-3.02740815161104e-5 
5.28783013429724e-6 
-0.00048470395855918565 
-0.0021398248648927826 
0.002834442896085651 
0.30897114658328745 
0.2871777487290357 
0.4325412833514347 
-1.9230071325723807e-7 
6.5645546139059824e-6 
-3.116676182847851e-7 
-0.00013997005340181227 
0.0001882903171454402 
2.077446614755493e-5 
-0.00044110010216794906 
0.0012429040890911192 
7.474989064676456e-6 
4.696530947879591e-6 
0.2066259995256029 
0.37842887832208527 
1.290715482379994e-6 
-2.5227100133015567e-6 
-3.6376644924882652e-6 
-3.7688873717463764e-5 
-0.00010733418442843815 
-0.001480683264409714 
0.5520808048501229 
0.550974580051713 
5.463347066170935e-7 
1.1242463538706144e-6 
-1.1332741959320383e-6 
-3.574503368740986e-7 
7.904667550217159e-7 
-0.00013451210721831074 
0.0004806276177915238 
-3.8676505418435796e-5 
-9.931535191814758e-5 
3.113424166622895e-5 
-0.00015983106635319343 
-0.000587568435362118 
0.00021834325889991046 
-0.0004816391932944738 
-6.766923125471275e-5 
0.00015497729170895207 
7.751475465473227e-7 
4.959785141178743e-6 
-1.46629365022335e-6 
2.0592062992912297e-5 
-1.7868564493462237e-5 
-8.64034210805309e-6 
0.00015748870392111666 
4.346353163517291e-5 
-3.491385104568273e-5 
-8.033388517453112e-6 
2.1418189256258006e-6 
-2.7904213049954198e-6 
2.3979835512556742e-5 
1.7974100811712223e-5 
0.00011374014004749231 
-0.00013323097703592105 
-7.244396497653021e-5 
7.57990277119183e-5 
-5.500310249799724e-6 
1.7610318941795033e-6 
3.2377918433813206e-5 
1.3434541897336664e-5 
0.00012758314938303805 
-8.286472780133482e-5 
-2.0625167768833375e-5 
-0.003178498363094995 
0.0020781032788541906 
0.001673538550768331 
0.09373967636504357 
0.0360027820247321 
0.022117333197578637 
1.0434313039130178e-5 
-6.65093018190656e-6 
3.2287460904646202e-6 
-0.00030279626723367283 
-0.00014364724930636614 
0.00039375504600690377 
4.886086239311988e-6 
-6.927022664011146e-6 
4.121178886936746e-6 
3.5983668487646725e-5 
-1.1827217879512845e-5 
-1.6600288110591178e-6 
-0.0003444182210330864 
4.041618112719321e-6 
0.00023795927997587608 
0.000768602497560762 
-0.0004140788672038987 
0.00010593632479418246 
-5.531401284652789e-6 
5.802850397923824e-6 
-3.5827353585290633e-6 
8.888281598751479e-6 
-1.6871809956599374e-5 
1.3570092977502368e-5 
0.00043628039507349366 
-0.0002035154797541789 
-0.00011050020911705989 
0.00022503598424196007 
0.00020560458196771435 
-4.934887534522927e-6 
1.1653794640672774e-5 
-1.02130663577727e-5 
4.703764028606921e-7 
-9.449990781337975e-6 
0.00020442732034708675 
-4.79290113886865e-5 
-0.00010999444718173143 
6.872182657342762e-7 
-4.030667088646023e-6 
2.18975580828566e-5 
-1.0521278970530824e-5 
-0.0004011129982455198 
3.2660617711789226e-5 
0.00048496084058036334 
-0.00020570555527977603 
-0.0004332889447099395 
0.00017993961849680978 
-0.00015771676635347956 
0.0003470598356885415 
0.0003309373065953617 
-3.582225727524749e-6 
3.9209177923858635e-6 
7.037934757570871e-6 
6.132756249680849e-6 
-2.120638126601977e-5 
-6.699355345392643e-5 
0.00029610542420208276 
-9.995879510727842e-5 
2.5183095434720604e-6 
-4.2234418691476255e-7 
-5.000505909968032e-6 
-6.294268330710588e-6 
0.00012912166163367764 
-2.1012236077669354e-5 
-0.001537325364002684 
-0.0009879530031243874 
0.06970836394628613 
0.014349871954685324 
3.5980425952481503e-6 
3.997605898162479e-6 
0.00015159108215761244 
-0.00021728823992224792 
5.584975540894879e-5 
0.00037061064453689885 
-0.001117348428359193 
-0.00028533937989084075 
5.346712416897486e-6 
-1.6585917466601292e-6 
-2.463219324277958e-6 
-1.9348861489561198e-5 
1.6380360028610134e-5 
2.2603613345517062e-5 
2.2033112089414946e-6 
-2.49456996487018e-6 
0.00024079608203572377 
-0.0007654803293399506 
0.00015369881112559038 
0.000388271341555503 
4.8578626075666245e-6 
-2.2608213613640843e-6 
4.167820992191739e-5 
3.1428100441696625e-5 
-0.0014803735378841694 
-9.479554813835727e-5 
0.0022590546374970147 
2.355399633917591e-6 
1.5203814271960593e-6 
-1.2503060540728174e-6 
-1.396156817914732e-5 
2.9743432730438774e-6 
1.834223010311584e-5 
-7.020825428546343e-5 
9.340711811072222e-5 
0.00017422059353357775 
-0.00010437093609063484 
0.00012274875025270534 
-0.0001704241199605459 
-1.7909568396515707e-6 
-1.089794495394405e-6 
-3.049199592307211e-6 
1.9123650072120035e-5 
-6.058591721670733e-6 
1.1614953104310892e-5 
-0.000103040423663066 
0.00013536176061214664 
0.00019728045282322028 
3.879510056623054e-5 
0.00019187164137009913 
4.014974487928909e-5 
7.143659691829955e-5 
7.092694365598945e-7 
2.471249267594274e-6 
-3.108301849492259e-6 
4.974968208142676e-6 
0.00032266575961624363 
0.0007645491543548688 
-0.0012751108144174687 
-0.00025857817683774896 
-0.00014965277738960428 
0.0006984411835952217 
4.902505017106675e-7 
-1.9922193854139802e-6 
2.696529764124201e-6 