# vtk DataFile Version 3.0 
Unstructured Grid 
ASCII 
DATASET UNSTRUCTURED_GRID
POINTS 2173 float 
-0.5 -0.5 0  
0.5 -0.5 0  
0.5 0.5 0  
-0.5 0.5 0  
-0.475 -0.5 0  
-0.45 -0.5 0  
-0.425 -0.5 0  
-0.4 -0.5 0  
-0.375 -0.5 0  
-0.35 -0.5 0  
-0.325 -0.5 0  
-0.3 -0.5 0  
-0.275 -0.5 0  
-0.25 -0.5 0  
-0.225 -0.5 0  
-0.2 -0.5 0  
-0.175 -0.5 0  
-0.15 -0.5 0  
-0.125 -0.5 0  
-0.1 -0.5 0  
-0.075 -0.5 0  
-0.05 -0.5 0  
-0.025 -0.5 0  
-1.3761214e-12 -0.5 0  
0.025 -0.5 0  
0.05 -0.5 0  
0.075 -0.5 0  
0.1 -0.5 0  
0.125 -0.5 0  
0.15 -0.5 0  
0.175 -0.5 0  
0.2 -0.5 0  
0.225 -0.5 0  
0.25 -0.5 0  
0.275 -0.5 0  
0.3 -0.5 0  
0.325 -0.5 0  
0.35 -0.5 0  
0.375 -0.5 0  
0.4 -0.5 0  
0.425 -0.5 0  
0.45 -0.5 0  
0.475 -0.5 0  
0.5 -0.475 0  
0.5 -0.45 0  
0.5 -0.425 0  
0.5 -0.4 0  
0.5 -0.375 0  
0.5 -0.35 0  
0.5 -0.325 0  
0.5 -0.3 0  
0.5 -0.275 0  
0.5 -0.25 0  
0.5 -0.225 0  
0.5 -0.2 0  
0.5 -0.175 0  
0.5 -0.15 0  
0.5 -0.125 0  
0.5 -0.1 0  
0.5 -0.075 0  
0.5 -0.05 0  
0.5 -0.025 0  
0.5 -1.3761214e-12 0  
0.5 0.025 0  
0.5 0.05 0  
0.5 0.075 0  
0.5 0.1 0  
0.5 0.125 0  
0.5 0.15 0  
0.5 0.175 0  
0.5 0.2 0  
0.5 0.225 0  
0.5 0.25 0  
0.5 0.275 0  
0.5 0.3 0  
0.5 0.325 0  
0.5 0.35 0  
0.5 0.375 0  
0.5 0.4 0  
0.5 0.425 0  
0.5 0.45 0  
0.5 0.475 0  
0.475 0.5 0  
0.45 0.5 0  
0.425 0.5 0  
0.4 0.5 0  
0.375 0.5 0  
0.35 0.5 0  
0.325 0.5 0  
0.3 0.5 0  
0.275 0.5 0  
0.25 0.5 0  
0.225 0.5 0  
0.2 0.5 0  
0.175 0.5 0  
0.15 0.5 0  
0.125 0.5 0  
0.1 0.5 0  
0.075 0.5 0  
0.05 0.5 0  
0.025 0.5 0  
1.3761214e-12 0.5 0  
-0.025 0.5 0  
-0.05 0.5 0  
-0.075 0.5 0  
-0.1 0.5 0  
-0.125 0.5 0  
-0.15 0.5 0  
-0.175 0.5 0  
-0.2 0.5 0  
-0.225 0.5 0  
-0.25 0.5 0  
-0.275 0.5 0  
-0.3 0.5 0  
-0.325 0.5 0  
-0.35 0.5 0  
-0.375 0.5 0  
-0.4 0.5 0  
-0.425 0.5 0  
-0.45 0.5 0  
-0.475 0.5 0  
-0.5 0.475 0  
-0.5 0.45 0  
-0.5 0.425 0  
-0.5 0.4 0  
-0.5 0.375 0  
-0.5 0.35 0  
-0.5 0.325 0  
-0.5 0.3 0  
-0.5 0.275 0  
-0.5 0.25 0  
-0.5 0.225 0  
-0.5 0.2 0  
-0.5 0.175 0  
-0.5 0.15 0  
-0.5 0.125 0  
-0.5 0.1 0  
-0.5 0.075 0  
-0.5 0.05 0  
-0.5 0.025 0  
-0.5 1.3761214e-12 0  
-0.5 -0.025 0  
-0.5 -0.05 0  
-0.5 -0.075 0  
-0.5 -0.1 0  
-0.5 -0.125 0  
-0.5 -0.15 0  
-0.5 -0.175 0  
-0.5 -0.2 0  
-0.5 -0.225 0  
-0.5 -0.25 0  
-0.5 -0.275 0  
-0.5 -0.3 0  
-0.5 -0.325 0  
-0.5 -0.35 0  
-0.5 -0.375 0  
-0.5 -0.4 0  
-0.5 -0.425 0  
-0.5 -0.45 0  
-0.5 -0.475 0  
-0.002115384 -0.00023065208 0  
-0.20714286 -0.20714286 0  
0.20714286 -0.20714286 0  
0.20714286 0.20714286 0  
-0.20714286 0.20714286 0  
-0.28155318 -0.0017231192 0  
0.0017231192 -0.28155318 0  
0.28155318 0.0017231192 0  
-0.0017231192 0.28155318 0  
0.3319978 -0.33098683 0  
0.33098683 0.3319978 0  
-0.3319978 0.33098683 0  
-0.33098683 -0.3319978 0  
-0.14015679 -0.06698606 0  
0.06698606 -0.14015679 0  
0.14015679 0.06698606 0  
-0.06698606 0.14015679 0  
-0.1387125 -0.34573975 0  
0.34573975 -0.1387125 0  
0.1387125 0.34573975 0  
-0.34573975 0.1387125 0  
0.14046866 -0.34602854 0  
0.34602854 0.14046866 0  
-0.14046866 0.34602854 0  
-0.34602854 -0.14046866 0  
-0.05869875 -0.16617337 0  
0.18217777 -0.061504476 0  
0.062312964 0.18362015 0  
-0.18362015 0.062312964 0  
-0.034321424 -0.38563195 0  
0.38563195 -0.034321424 0  
0.034321424 0.38563195 0  
-0.38563195 0.034321424 0  
0.39586002 -0.2428538 0  
0.2428538 0.39586002 0  
-0.39586002 0.2428538 0  
-0.2428538 -0.39586002 0  
0.23688246 -0.38952246 0  
0.38952246 0.23688246 0  
-0.23688246 0.38952246 0  
-0.38952246 -0.23688246 0  
-0.24287231 -0.09948847 0  
0.09948847 -0.24287231 0  
0.24287231 0.09948847 0  
-0.09948847 0.24287231 0  
-0.11560815 -0.24300627 0  
0.24300627 -0.11560815 0  
0.11560815 0.24300627 0  
-0.24300627 0.11560815 0  
-0.40192315 -0.4008276 0  
0.4008276 -0.40192315 0  
0.40192315 0.4008276 0  
-0.4008276 0.40192315 0  
0.06409326 -0.40289903 0  
0.40289903 0.06409326 0  
-0.06409326 0.40289903 0  
-0.40289903 -0.06409326 0  
0.2962961 -0.23982804 0  
0.23982804 0.2962961 0  
-0.2962961 0.23982804 0  
-0.23982804 -0.2962961 0  
-0.28087237 -0.21196799 0  
0.21196799 -0.28087237 0  
0.28087237 0.21196799 0  
-0.21196799 0.28087237 0  
-0.0901279 0.007867504 0  
-0.05002927 -0.07494272 0  
0.0873353 -0.009871756 0  
0.0071518295 0.09216282 0  
-0.14120433 -0.1484696 0  
-0.14581114 0.13960092 0  
0.1458264 -0.14505939 0  
0.13960092 0.14581114 0  
0.41838804 -0.3182741 0  
0.3182741 0.41838804 0  
-0.41838804 0.3182741 0  
-0.3182741 -0.41838804 0  
0.32118136 -0.41712493 0  
0.41712493 0.32118136 0  
-0.32118136 0.41712493 0  
-0.41712493 -0.32118136 0  
-0.19707234 -0.014843048 0  
0.018050108 -0.20183705 0  
0.19707234 0.014843048 0  
-0.014843048 0.19707234 0  
-0.10938372 -0.41847488 0  
0.41847488 -0.10938372 0  
0.10938372 0.41847488 0  
-0.41847488 0.10938372 0  
0.15773043 -0.4267032 0  
0.4267032 0.15773043 0  
-0.15773043 0.4267032 0  
-0.4267032 -0.15773043 0  
-0.3204562 -0.07174808 0  
0.07174808 -0.3204562 0  
0.3204562 0.07174808 0  
-0.07174808 0.3204562 0  
0.02801032 -0.07269879 0  
-0.31817523 0.069836795 0  
-0.069836795 -0.31817523 0  
0.31817523 -0.069836795 0  
0.069836795 0.31817523 0  
0.43106207 -0.17757268 0  
0.17757268 0.43106207 0  
-0.43106207 0.17757268 0  
-0.17757268 -0.43106207 0  
0.0703783 0.071201205 0  
-0.051593844 0.064346604 0  
0.099701226 -0.08333426 0  
0.2863281 -0.17248559 0  
0.17248559 0.2863281 0  
-0.2863281 0.17248559 0  
-0.17248559 -0.2863281 0  
-0.2341888 0.04979648 0  
-0.049194112 -0.231281 0  
0.23358595 -0.04946041 0  
0.04979648 0.2341888 0  
-0.009939441 -0.13691185 0  
-0.26560438 -0.17864102 0  
0.17864102 -0.26560438 0  
0.26560438 0.17864102 0  
-0.17864102 0.26560438 0  
0.013302229 -0.43510666 0  
0.43510666 0.013302229 0  
-0.013302229 0.43510666 0  
-0.43510666 -0.013302229 0  
0.09432827 0.114700764 0  
-0.11539384 0.093188405 0  
-0.3413634 -0.005100272 0  
0.005100272 -0.3413634 0  
0.3413634 0.005100272 0  
-0.005100272 0.3413634 0  
-0.19817708 -0.3508856 0  
0.3508856 -0.19817708 0  
0.19817708 0.3508856 0  
-0.3508856 0.19817708 0  
-0.34100306 -0.27216324 0  
0.27216324 -0.34100306 0  
0.34100306 0.27216324 0  
-0.27216324 0.34100306 0  
-0.20269383 -0.14403741 0  
0.14393912 -0.2028372 0  
0.2026342 0.14393856 0  
-0.14393856 0.2026342 0  
-0.1030633 -0.10524017 0  
-0.4394695 -0.104853734 0  
0.104853734 -0.4394695 0  
0.4394695 0.104853734 0  
-0.104853734 0.4394695 0  
-0.44156647 -0.44156647 0  
0.44156647 -0.44156647 0  
0.44156647 0.44156647 0  
-0.44156647 0.44156647 0  
-0.2683254 -0.44465622 0  
0.44465622 -0.2683254 0  
0.2683254 0.44465622 0  
-0.44465622 0.2683254 0  
0.2654342 -0.4435478 0  
0.4435478 0.2654342 0  
-0.2654342 0.4435478 0  
-0.4435478 -0.2654342 0  
-0.27373606 -0.34534052 0  
0.34534052 -0.27373606 0  
0.27373606 0.34534052 0  
-0.34534052 0.27373606 0  
-0.05307205 -0.4481981 0  
0.4481981 -0.05307205 0  
0.05307205 0.4481981 0  
-0.4481981 0.05307205 0  
-0.35614902 -0.19390328 0  
0.19390328 -0.35614902 0  
0.35614902 0.19390328 0  
-0.19390328 0.35614902 0  
-0.14022674 -0.012452113 0  
0.14171903 0.011271359 0  
-0.01125192 0.14089845 0  
-0.19556868 -0.06932378 0  
0.070511825 -0.19668652 0  
0.19556868 0.06932378 0  
-0.06932378 0.19556868 0  
-0.24951252 -0.039742906 0  
0.04037078 -0.2503529 0  
0.24951252 0.039742906 0  
-0.039742906 0.24951252 0  
0.44100407 -0.36164257 0  
0.36164257 0.44100407 0  
-0.44100407 0.36164257 0  
-0.36164257 -0.44100407 0  
-0.4451273 -0.36589316 0  
0.36589316 -0.4451273 0  
0.4451273 0.36589316 0  
-0.36589316 0.4451273 0  
0.1121834 -0.30242515 0  
0.30242515 0.1121834 0  
-0.1121834 0.30242515 0  
-0.30242515 -0.1121834 0  
-0.115146436 -0.19087775 0  
0.19190264 -0.11309679 0  
0.11520548 0.19263776 0  
-0.19263776 0.11520548 0  
-0.08287991 -0.37025127 0  
0.37025127 -0.08287991 0  
0.08287991 0.37025127 0  
-0.37025127 0.08287991 0  
0.23791528 -0.24381089 0  
0.24381089 0.23791528 0  
-0.23791528 0.24381089 0  
-0.24381089 -0.23791528 0  
-0.44626984 -0.21174923 0  
0.21174923 -0.44626984 0  
0.44626984 0.21174923 0  
-0.21174923 0.44626984 0  
0.35174853 -0.37705234 0  
0.37705234 0.35174853 0  
-0.35174853 0.37705234 0  
-0.37705234 -0.35174853 0  
-0.048605647 -0.023262763 0  
-0.1551113 -0.21381997 0  
0.21381997 -0.1551113 0  
0.1551113 0.21381997 0  
-0.21381997 0.1551113 0  
-0.29403278 -0.30027482 0  
0.30027482 -0.29403278 0  
0.29403278 0.30027482 0  
-0.30027482 0.29403278 0  
0.12173745 -0.390654 0  
0.390654 0.12173745 0  
-0.12173745 0.390654 0  
-0.390654 -0.12173745 0  
-0.12236246 -0.2979882 0  
0.2979882 -0.12236246 0  
0.12236246 0.2979882 0  
-0.2979882 0.12236246 0  
-0.0945969 -0.046371013 0  
0.035276897 -0.027358124 0  
-0.0076714605 0.051946 0  
-0.30809116 -0.17165439 0  
0.17165439 -0.30809116 0  
0.30809116 0.17165439 0  
-0.17165439 0.30809116 0  
-0.16592422 -0.10879113 0  
0.10700909 -0.1687818 0  
0.16864619 0.10664837 0  
-0.10664837 0.16864619 0  
-0.16784625 -0.38069874 0  
0.38069874 -0.16784625 0  
0.16784625 0.38069874 0  
-0.38069874 0.16784625 0  
-0.4563872 -0.05993889 0  
0.05993889 -0.4563872 0  
0.4563872 0.05993889 0  
-0.05993889 0.4563872 0  
0.31103167 -0.37412483 0  
0.37412483 0.31103167 0  
-0.31103167 0.37412483 0  
-0.37412483 -0.31103167 0  
-0.3909646 -0.012754724 0  
0.012754724 -0.3909646 0  
0.3909646 0.012754724 0  
-0.012754724 0.3909646 0  
0.44915667 -0.21679194 0  
0.21679194 0.44915667 0  
-0.44915667 0.21679194 0  
-0.21679194 -0.44915667 0  
0.045831423 0.12033131 0  
-0.12662303 0.045442794 0  
-0.3107799 -0.37355793 0  
0.37355793 -0.3107799 0  
0.3107799 0.37355793 0  
-0.37355793 0.3107799 0  
0.04152367 0.021693805 0  
-0.08040017 -0.2675595 0  
0.26794365 -0.08044455 0  
0.080500565 0.2680441 0  
-0.2680441 0.080500565 0  
-0.13753757 -0.45578164 0  
0.45578164 -0.13753757 0  
0.13753757 0.45578164 0  
-0.45578164 0.13753757 0  
-0.05507968 -0.12135967 0  
0.14172421 -0.09428923 0  
0.2571752 -0.19664502 0  
[...]
POINT_DATA 2173 
SCALARS T float 
LOOKUP_TABLE default 
1.6054066767632058e-18 
4.32155097252187e-18 
-1.9441256966490985e-21 
-1.9271762376571335e-19 
-1.581150715699054e-17 
-3.969880640968776e-18 
2.771483225058883e-16 
-7.029779290620004e-17 
7.497539300720624e-18 
9.629187929510719e-17 
5.484911691468905e-17 
3.502695526206916e-16 
2.4914503462626943e-16 
4.119402220997055e-18 
2.6015581077073514e-16 
-2.439413439753843e-16 
-5.531928157116903e-17 
-4.493658385686145e-17 
-3.5254914260949353e-16 
5.710860778894911e-16 
-6.401924772283433e-16 
4.405605402705198e-17 
5.930797699060525e-16 
-4.276662045358119e-16 
3.191585691104953e-16 
-3.4410212837501958e-16 
1.2569141151094613e-16 
7.015614812318124e-16 
-5.707565784165808e-16 
8.182809596316512e-17 
-3.052765076187386e-16 
-6.4564391632595745e-18 
4.620539471717999e-16 
-1.1571983543955632e-16 
-6.467697337623099e-17 
-1.955822560874749e-15 
4.242992287181267e-16 
-1.365114163003296e-15 
-1.733438213227217e-16 
2.0534533042242205e-16 
-8.221108667428823e-17 
1.0468601029524625e-16 
6.536486530061565e-17 
-1.491083224708431e-17 
5.819407638301172e-17 
3.506263152481561e-16 
-1.4390882419293935e-16 
-4.143996697108677e-16 
-5.980108197450896e-16 
-9.333422715841442e-16 
-9.699289915331566e-17 
1.5162321039761168e-16 
-1.2361099275022132e-16 
2.9117381794970097e-16 
6.176855268597482e-19 
-4.504519325923482e-16 
-1.9918212838604215e-17 
1.1868601012634238e-16 
-8.124832367615267e-17 
-1.0319901657017919e-16 
-3.9321131975649323e-16 
7.20679999280138e-16 
-1.1754559276424654e-15 
9.982403748829285e-16 
-7.259240130801345e-16 
1.9979988023599243e-16 
-2.397164300697754e-16 
-4.248382842220708e-17 
-8.476068573659545e-17 
-2.3447521074901602e-17 
-1.4892807782463717e-17 
-7.365192663658348e-18 
1.0079496136146776e-17 
9.901660901543376e-18 
4.951143505917788e-18 
1.5975359039470552e-18 
1.4568148919066397e-18 
1.5372495418083271e-18 
2.303408471613665e-18 
-3.4014182781129348e-18 
9.817909593227892e-19 
9.664389222890662e-19 
-8.28003667300389e-19 
-9.692596208350742e-19 
4.04030694492745e-18 
-3.2180070569757163e-18 
-1.8891340575925913e-18 
-1.5787136463964875e-18 
-2.3519296581525815e-19 
-7.089826226186584e-18 
-5.871022104949764e-18 
-1.8516698576555504e-18 
-1.9379314643388663e-18 
-2.350762934102564e-18 
-1.8025101609464155e-18 
-3.1232655040850928e-18 
-3.2127086257454582e-18 
-1.49585701237014e-20 
-3.1727999780387893e-18 
5.9595252123410085e-19 
-1.495522349967609e-18 
3.310423866379921e-18 
-4.399873090480404e-18 
6.0588627144428884e-18 
-5.625076665769208e-18 
-9.285498275558571e-18 
-1.6632100064425755e-18 
-5.0973436437092565e-18 
4.470985106621465e-18 
-1.035106363132906e-17 
7.812611147644343e-18 
-9.673685680378614e-18 
5.435318910236048e-18 
1.2202647254654089e-17 
-8.527135265347959e-18 
-3.9946723655914565e-18 
-1.0729507151717685e-17 
-2.4975724000720575e-18 
-3.4247818608942506e-17 
-2.4250932483926837e-18 
7.332302095905122e-18 
-6.517473889047616e-18 
4.237158130184741e-18 
3.869149866059431e-17 
5.9877702177959585e-18 
2.4693326010428252e-17 
3.5687354414758697e-17 
2.3778470062676034e-17 
2.5294574019548283e-17 
2.5356050197600748e-17 
-3.3155364563764956e-17 
3.086470871180362e-17 
-8.767762870042028e-18 
-4.169941439654511e-17 
6.306367926357242e-17 
-9.239952378688277e-17 
1.1499893085320705e-16 
-6.521710941157546e-17 
4.78402397496261e-17 
1.2363232841863793e-17 
2.3999808870077703e-20 
3.668300208026172e-18 
-1.8693735737038772e-17 
3.009497319024526e-17 
1.1755193056558565e-17 
-2.914294638571696e-17 
-2.9916509016891265e-18 
-7.88537054897439e-17 
3.8735725448218824e-17 
-6.434806737862713e-17 
-1.0010889952813055e-16 
2.496772011482127e-16 
-3.2065385445346397e-17 
1.4276273126216764e-16 
-2.432855504985107e-16 
-6.767319605364499e-17 
6.163360901359932e-17 
-1.8521508351946881e-16 
2.8034882821182584e-17 
2.582882992210425e-17 
1.6086281855552074e-6 
-2.5393198656612935e-5 
0.0012628763010640745 
0.0034622506874323754 
3.014357854815316e-7 
1.813327107489107e-5 
1.3483385254108567e-5 
0.4657519174725875 
-1.8543008450957515e-6 
0.0005775606593231397 
2.377315983221611e-6 
-2.8161512427120004e-7 
1.8858361813099017e-5 
-7.389329665306162e-5 
-0.00017319631699250134 
0.08003866726695054 
1.0964134081859985e-5 
1.200859272105141e-5 
0.002566537949093759 
3.6042150191832256e-6 
-1.917482152498909e-5 
0.00014809503235724446 
0.017011820528631885 
4.539772999825831e-6 
-8.888841324559162e-5 
0.00025018734192668127 
0.054182198499800285 
-1.2097539672705834e-5 
-5.93695766334705e-5 
0.00041531570480440487 
0.008090260569600405 
-3.915036967853276e-6 
4.809111750860209e-5 
0.0005098684433277033 
-3.722108172295211e-7 
-2.3180234806808833e-6 
-0.00014021516511608133 
0.00013735270847520698 
2.153494564977496e-5 
-7.377675000902405e-6 
7.298301243917111e-5 
0.00012377178536988694 
0.0001996379495062156 
0.3794643487716887 
1.9318178534680545e-6 
0.00020860643752958492 
0.0068740604087484955 
-1.6529011146648438e-5 
-6.2990331791157745e-6 
-7.341578236513271e-5 
-0.000559687727556665 
1.1442020070483334e-6 
-1.926416307386496e-6 
-3.112717059055278e-5 
0.0056365472243826795 
3.873633414727904e-6 
2.402755357361718e-5 
0.0015287567180274177 
-1.0158626513468766e-5 
8.425210837466316e-6 
-0.00017287035554358157 
-0.00020101913982892828 
0.0012233321695827978 
0.0028159254096222102 
1.1390673493926045e-5 
-9.319654447528523e-5 
0.00022056733165816013 
0.0035672572275515313 
1.2433476452646268e-6 
-6.626339372406328e-5 
5.868112951451401e-6 
0.0018187265860459777 
0.011826779578054138 
0.0005048205282636085 
1.6591479760695466e-6 
1.742263586595669e-6 
-3.9572402283222033e-5 
-0.0013833088831089004 
4.671613879775925e-6 
9.740556116380032e-6 
7.517178056847324e-5 
1.7880705474987325e-5 
-0.00019414339646219776 
0.40984291365966125 
9.668239612902502e-6 
0.00013768598291567623 
8.237422943438716e-5 
-2.7308428642098548e-6 
2.510932927215079e-5 
0.00019079870399702566 
-0.00018571951736287817 
-3.6013180191844113e-6 
-3.8872717341859046e-5 
-0.00010409890036896014 
-0.0003016858891497292 
0.22151370587876837 
4.005814233526033e-7 
-0.0007625454223539782 
-2.7812083341335397e-5 
9.408036613787564e-5 
0.033757142066080735 
1.320944992018373e-6 
0.0008636744353266334 
1.0016835751023306e-6 
1.673796586806201e-5 
0.00014236496715234554 
0.001781037658460789 
2.4738471708142555e-6 
0.0013788763719506294 
0.0019457915584628724 
-1.2388383339732759e-5 
4.0725941205061645e-6 
-9.443463176042998e-7 
-3.1210523407363825e-5 
-0.00010493643818472762 
0.17414879855000454 
9.610017919898997e-7 
0.0007304583592372369 
-0.00022370788700162153 
0.0011323759865416259 
0.024964040560299598 
6.947734596024029e-6 
0.0002038806405126194 
6.727233674232375e-5 
-6.621279906769176e-6 
6.442287205456055e-5 
0.0032240875534503433 
-1.4104187232603468e-5 
-3.6375160742968066e-5 
0.0002742074236667909 
0.10980271536325983 
2.688350259528459e-6 
-8.199383219010467e-5 
-0.0012260127350483703 
4.300108607753e-6 
-2.224200326785211e-6 
6.639697008987051e-5 
0.001203547573809222 
-1.198710714893597e-5 
4.76589910699369e-6 
1.1533414472802236e-5 
0.000961821113343318 
0.08367492929738311 
7.318021261933533e-6 
8.266299761443574e-5 
6.990859072356933e-6 
-0.00015872983489332378 
-0.00013962018271981155 
3.622840716038994e-6 
2.601024849206723e-5 
-0.00020453883493783937 
4.725651234022969e-8 
2.588088436329438e-6 
-3.454834176467001e-5 
9.901814396901048e-5 
1.8720855804918236e-6 
1.1648733756433379e-7 
-0.0005539833678621088 
1.5645397931292725e-5 
-3.201253292087994e-6 
0.00014808803939735194 
-0.00019286067785530083 
0.001150696938394559 
2.0897821497224846e-6 
-5.878230589292374e-6 
0.00029792803169855094 
0.0001760630966261923 
-3.4883989000117447e-6 
1.9883095707702173e-5 
-5.8436418317339916e-5 
-0.0005915301774288718 
0.0005318015588471879 
6.662249554972409e-6 
-5.526593032529251e-5 
0.07958748334353663 
4.754921760635849e-6 
-2.4681203325103996e-5 
-4.011856016268356e-5 
0.37862034125009636 
-1.4918488562890742e-6 
-4.410212981075468e-5 
-0.00016530885678089699 
0.7222882525426014 
6.256860999257635e-6 
-0.0007751769299796617 
-2.034675402715234e-7 
1.3888023749355111e-6 
-1.7656883504723935e-5 
-7.903348116210858e-5 
-0.0008842179550000678 
6.251428410705221e-7 
-1.61406370960084e-6 
-0.0004398436993902194 
0.16296068288403542 
4.393740119536797e-6 
2.6370160172018613e-5 
0.0001736416842129747 
0.005586563099608077 
0.00016961511804952897 
-7.282992092745073e-8 
-8.737997254286742e-5 
0.0019164042368630858 
3.118587003201722e-6 
-2.5271622430646113e-5 
0.0024684876306159203 
0.00038881170416059846 
-9.534876930089868e-6 
0.0002605118883461204 
3.5940802978656506e-5 
-0.00016755852990769476 
1.661955501692819e-5 
-8.217690283713268e-7 
0.0006991117937651945 
1.2581866657033259e-6 
-3.973303433474914e-6 
-6.466973638503613e-5 
-7.979252871706457e-5 
-3.8989257377174764e-5 
0.00409737805669886 
0.0005974135657926787 
1.0750771378582646e-5 
-0.00013590392089046825 
0.0001325367960808822 
-6.407329284103826e-6 
-9.777787624642037e-6 
-0.0007161545784849487 
0.0034187683722338895 
-2.1851000638652115e-6 
-3.855712011152141e-5 
-2.111297246283057e-5 
0.007767902089531136 
9.575084749479478e-7 
-3.6196681034654943e-5 
-1.62816242948401e-5 
2.133608690648286e-5 
-5.386186325849369e-7 
-0.00013227966857816197 
0.00010554943028441612 
0.015970025678622626 
1.053891870839949e-5 
0.0001561728151570811 
-0.0004840715156611222 
0.11272692655128444 
5.723409737583038e-6 
-0.00012170072498435039 
0.0004169398575346192 
-1.7146100497089085e-6 
1.1024586807352038e-5 
1.0044923464236211e-5 
2.0701861398814803e-5 
-0.00019154389535131711 
3.191861676120488e-6 
-0.0005111824621802832 
-1.403179670419334e-6 
-3.059405840857443e-6 
4.509678192151463e-5 
4.198110955261011e-6 
0.00033428584020020604 
0.011956897147662678 
2.797722892187265e-6 
-0.0007056444368421661 
1.2165807513376778e-6 
-2.7017953307385735e-5 
-0.00014076407659121976 
1.6806215027761572e-5 
-0.00014115029001786976 
-0.0001398157347449541 
0.0003058042754691333 
2.2315680272936673e-6 
-1.3063389901356402e-5 
0.0001458699062133658 
-0.0005536366893612265 
0.051820636127953935 
2.938846702213994e-6 
-9.378946456863975e-6 
-0.00028603128875713773 
-0.00021133142458997888 
3.716355443738127e-7 
-2.4851454775906135e-6 
-0.0004139110013071813 
0.00564623067451766 
0.0022121686561798904 
-2.655509474953091e-5 
4.743575666832255e-6 
-0.00011763492422674911 
0.014673557603728814 
-8.418253747146783e-5 
-3.2700531662355846e-5 
0.0010296849613036405 
-3.209845302045105e-7 
1.2842696301529471e-6 
1.933606470511036e-5 
-2.2851307870857578e-6 
1.8291786371340253e-6 
9.003846835103503e-5 
0.0003618835109813791 
-1.047642606764998e-6 
-8.601186749556358e-6 
-5.992218376180144e-5 
0.013048371450274047 
2.8958231275573765e-6 
-4.139142859605039e-5 
7.77294031323136e-5 
0.4640115907715967 
-6.4015894526762695e-6 
6.893520988584416e-6 
0.0010473882647288194 
-0.0007073866336109365 
0.00030384229906966895 
0.24079379183669433 
1.5413854811413e-6 
-8.510605665509643e-5 
-8.282408002787959e-6 
-0.00014123696487939653 
0.5074949680340006 
-6.323525325791014e-7 
-3.782086454550036e-5 
-0.00019332913016909933 
-2.2664265890786973e-5 
7.68246746543542e-6 
-0.0006158754256183483 
-0.0003215638121002612 
-0.00047930783111847254 
0.00046794789300933447 
-2.3946891841108096e-6 
-2.4107322410760414e-5 
0.00012144466896233155 
0.0002825742141843863 
1.4856425202237468e-6 
2.9428553899228366e-6 
6.884961477444026e-6 
-2.38625050809923e-5 
-0.00020382012324876814 
0.04128068087178272 
3.1750984170584663e-7 
5.462296459221134e-5 
-0.0001641383483312571 
5.655446968931794e-7 
2.758892822439237e-5 
0.0007482673748119768 
0.09274452207489559 
-5.2652178526672874e-6 
0.00016120849843344144 
-9.962495317799563e-5 
-0.000536093779953382 
0.052552824473298565 
2.6994475057779026e-6 
-0.00029220526376418576 
8.77020718229137e-6 
-0.0038322934177699984 
0.011385735441397211 
0.0001459605082517717 
-1.4649695161031816e-6 
-2.0141751513440206e-6 
1.899517677534687e-5 
9.705301827551965e-5 
0.0037069675077916627 
-7.357255392440714e-7 
1.2931333530439068e-5 
9.512973013371375e-5 
0.0007355084053290472 
-3.3054583741441463e-6 
-1.3765913832350063e-5 
1.7557414337291305e-5 
-0.00024586406988806006 
0.00011066780289028041 
1.239450104850391e-6 
-0.00010647934498136408 
-1.687831944367679e-6 
-1.239391927471671e-5 
-9.057530844044082e-5 
0.00019597668235773948 
-1.5864699872832125e-6 
-1.6461326315142642e-5 
-3.0630637120320514e-5 
-9.80441039296839e-5 
-0.0002541360233896622 
0.17366725833380398 
2.055276890346267e-7 
0.00015022133534545502 
0.24212986752979263 
-1.54590363168812e-6 
0.0006125772774785123 
1.604413928816332e-5 
-5.7294006234082555e-6 
-4.527774977790084e-5 
0.3901527009069472 
-2.2305731164691827e-6 
5.6923541641223e-5 
0.0004996482327811627 
0.0013789432425268377 
1.6898544093112016e-6 
-0.0008320209874886075 
-0.00010227621816616837 
0.0010599101321810474 
0.007368896979341748 
2.977949243872365e-6 
0.00022549249395026772 
-9.485188054197727e-7 
-2.978309057166635e-5 
-0.0001912086438922135 
4.454161190258764e-5 
0.00019709946253607268 
0.0009014357083050001 
0.23247921507167882 
1.4440185525628704e-5 
-5.659629550761584e-5 
-0.0005799860916145789 
-8.825415005197679e-7 
1.227302262366899e-5 
0.0021116456084464496 
-1.9572449452725354e-5 
-3.273448514302725e-5 
-0.0002724250718089759 
0.01434539166575621 
-2.2861602671277993e-6 
0.002518753893978425 
-2.325657281266695e-5 
-2.9697633136757893e-7 
7.553205938845345e-5 
-4.2586400699422765e-6 
-0.0001429261942675389 
0.0049841388955299895 
4.689488269038169e-7 
-5.320750725889753e-5 
0.0006467872577414468 
5.84817426174797e-5 
-6.486789835953887e-6 
-1.858052244408485e-6 
0.03950346122392103 
-1.2483676090946317e-5 
-3.35510502385239e-6 
-6.027670018838918e-5 
-9.426847869937372e-7 
-9.094883344082142e-6 
-0.00012737072405538617 
-0.00012868699452998257 
-0.0006181200877573729 
1.7949747731654141e-6 
-3.2597484090246255e-5 
-3.1543834890268556e-6 
-0.0019362254359661364 
1.1556331679032855e-7 
6.769306032643729e-6 
-4.7271744875623965e-5 
0.0013861533913424344 
-3.7677605291304113e-6 
-1.60592086006893e-5 
0.02969856422485908 
1.237475192705962e-5 
-0.00011146393358622589 
6.23362255333855e-5 
-3.2570679680356973e-6 
2.236099934628323e-6 
-3.807279788693698e-5 
-0.00020026576716419885 
-1.0166466783042712e-6 
-3.954058831610234e-6 
-0.00010974443476718671 
0.0006904268672993044 
0.11120422095691408 
8.128891858031636e-6 
-0.00010054708275228531 
0.1029811441321238 
-5.950114328369901e-8 
1.7437994654381878e-5 
0.001133476952343706 
-0.00029127509713441826 
0.0024378513225720997 
1.629284648783596e-6 
-1.4548539395474116e-5 
-0.0004648013126208637 
-0.0001624076448184552 
-0.0003591956920021748 
-8.473153141547705e-7 
-6.050096606739845e-6 
0.00021414595057644162 
0.02763269530262647 
-5.490699375004557e-6 
-0.0001432812792364838 
-8.048535029067116e-6 
0.000636743808910784 
3.959755292719786e-6 
2.757103457419665e-5 
0.00023123689590020893 
-6.004082458359583e-5 
6.933585191982872e-5 
0.00043706523490223513 
-0.0014232596890854433 
0.0031830760248292463 
0.0031545723703249443 
0.0004438964637512671 
0.0023329957210423313 
5.015423094999477e-6 
-1.1674366341400333e-5 
-1.83969615569542e-5 
-8.473675044712027e-5 
9.287855035185754e-5 
8.464834964280698e-5 
0.21769919885685507 
0.12175644909768599 
0.12122928458199797 
-5.01748994153049e-6 
-4.672225413455016e-6 
-3.914375277662242e-6 
7.401198553895827e-6 
-4.0948558584190815e-6 
-1.129324282887497e-5 
0.00017116497904870177 
-0.00014464873598941228 
-7.252650608727122e-6 
3.1628675820462793e-5 
0.0009546816110445903 
-0.001552434522746888 
0.011856094666508166 
0.002123348966892216 
4.7264801955391824e-5 
1.3698620489979776e-6 
2.122062722899478e-5 
-0.00019236844196704857 
0.09756561174301454 
0.05077026556114763 
-5.975800347261362e-6 
-2.12938166091641e-5 
0.002520229159095386 
0.00044466202506780804 
0.0003709055180523059 
4.974169017038894e-5 
-0.00022466533671288772 
0.00010881205304552567 
0.0001416715539756393 
6.67923560263398e-5 
7.846115138063189e-5 
-0.00016505505347710143 
0.0001339489264069933 
-0.00024621979058788183 
8.413160097009111e-6 
-3.419535256935786e-5 
3.323153722601659e-7 
8.790718813872344e-8 
6.81565703808238e-7 
1.824588263598385e-6 
6.8162484834715905e-6 
1.5589935213900858e-5 
0.0001454482440053964 
-3.2883044844771895e-5 
0.0005165565932630855 
-0.00012160865661545308 
6.054981877470272e-7 
-1.4001888585128378e-6 
8.623475686600145e-6 
1.7391767664890891e-6 
4.966989684237856e-5 
-2.9654453215689727e-5 
-0.00033242757948736537 
-5.088000310233274e-5 
8.153908808506876e-7 
-1.7401116892102575e-6 
1.8004425842713176e-5 
3.9431201723328995e-6 
0.00012204504076431704 
1.354121882468901e-5 
-6.394611673161769e-5 
0.00021570233457981816 
-0.00011890201851575652 
-0.00018707039444345648 
0.32149814741518545 
0.18181179571229625 
0.257103651319465 
2.7436201950765887e-6 
-1.553798783068667e-6 
-1.538010643877537e-6 
2.1168921271156475e-6 
-3.4705238819243556e-5 
-0.00012743019267329067 
-2.951670170321945e-6 
1.7701554103325325e-6 
-2.8136412345861607e-6 
9.434470650517348e-6 
-1.5623688934195732e-5 
1.2137266557464641e-5 
0.00012107133197418514 
-6.001711488375874e-5 
0.00015229599668686213 
0.000922292359973892 
-0.0007159644997021918 
6.661561053375699e-5 
-1.2946049699324092e-6 
-6.658447026941581e-7 
-4.491158462536309e-6 
-5.419400111460046e-6 
9.172655629710063e-6 
-2.1434624051180173e-6 
1.561732856459528e-5 
3.233006869436967e-5 
-0.00011424497995599729 
4.227457081897696e-5 
-4.196462529992647e-5 
-1.2771457893346464e-6 
-1.349501120697714e-5 
-8.634447290116807e-5 
-3.810840246214959e-6 
4.212020407900963e-6 
5.547263852870609e-5 
-0.0003176318086663198 
-0.0003190772052539753 
1.943535430025233e-5 
5.951501554955181e-6 
5.228614186754528e-6 
-2.192982907558867e-6 
-5.788092612657574e-5 
3.8607826074954506e-5 
-0.0003294215792780312 
0.00011902547261700908 
0.0002286551342629539 
-1.955100105321813e-5 
-7.563199625856033e-5 
0.0004234851961787448 
8.892088173043297e-5 
-2.133385518146053e-6 
3.761710988082779e-7 
-8.275056338977457e-6 
8.025183558181305e-6 
-2.5755148859966193e-5 
1.2444906810325121e-5 
-0.00010949266419192714 
7.162287005057332e-5 
-2.4279200206108635e-6 
7.659602175667584e-7 
3.1972408068426454e-6 
4.348973617853215e-6 
-3.643608876707754e-6 
3.808597859851789e-5 
0.0002569270083041465 
6.986732659348945e-5 
0.09837867421161621 
0.07093005014332765 
1.6325209924166197e-6 
-3.054788796061968e-6 
-4.120835341547756e-5 
-4.984256681019486e-5 
2.6931529807206065e-5 
-0.0006187475202303551 
-0.0006249003427089997 
0.0002465771302422448 
4.733023622268901e-6 
5.72057684082513e-6 
-3.416506518810918e-7 
5.647932775820542e-6 
-7.903727767908461e-6 
-1.9217285979898377e-6 
5.322765555593177e-5 
0.0003552397278263919 
9.517755229361246e-5 
-0.00011226330663025078 
0.0011377908025604106 
0.00020125944441325359 
-9.231544446895081e-7 
-3.571486488517113e-8 
3.010530771279e-5 
-8.086070281001366e-6 
-2.3350901803692443e-5 
0.0004585241655856281 
-0.000344381463018506 
0.0007471358492273255 
0.001475519811735611 
0.00013146777032505482 
1.2084210966842646e-6 
-6.307595702760339e-6 
6.217083578939813e-6 
3.015434720760246e-6 
3.0263439409114886e-5 
-2.4705829834195583e-5 
3.513088950298002e-6 
0.0007223689770404122 
-0.000222499737991909 
-1.0528084422574269e-6 
1.1359054602195972e-6 
2.5651929324195263e-7 
-3.9981104936769815e-6 
1.4109843785401806e-5 
-3.4232248864269054e-6 
3.0770515416747434e-5 
0.00012458176527615665 
-3.507702265588248e-5 
-5.700845321818668e-6 
-1.637351469281894e-5 
-0.0007440438994581361 
0.0001425631415559956 
-6.463632502329218e-7 
6.076795852152978e-6 
9.546924433709962e-6 
-4.014676612111703e-6 
-0.00016078019516329402 
-0.00023232400836574414 
0.0001258161823264605 
0.00012054445186469952 
-0.00031102824428642044 
0.0008850870547841462 
1.4176909671370253e-6 
-6.883024685724957e-7 