# vtk DataFile Version 3.0 
Unstructured Grid 
ASCII 
DATASET UNSTRUCTURED_GRID
POINTS 2173 float 
-0.5 -0.5 0  
0.5 -0.5 0  
0.5 0.5 0  
-0.5 0.5 0  
-0.475 -0.5 0  
-0.45 -0.5 0  
-0.425 -0.5 0  
-0.4 -0.5 0  
-0.375 -0.5 0  
-0.35 -0.5 0  
-0.325 -0.5 0  
-0.3 -0.5 0  
-0.275 -0.5 0  
-0.25 -0.5 0  
-0.225 -0.5 0  
-0.2 -0.5 0  
-0.175 -0.5 0  
-0.15 -0.5 0  
-0.125 -0.5 0  
-0.1 -0.5 0  
-0.075 -0.5 0  
-0.05 -0.5 0  
-0.025 -0.5 0  
-1.3761214e-12 -0.5 0  
0.025 -0.5 0  
0.05 -0.5 0  
0.075 -0.5 0  
0.1 -0.5 0  
0.125 -0.5 0  
0.15 -0.5 0  
0.175 -0.5 0  
0.2 -0.5 0  
0.225 -0.5 0  
0.25 -0.5 0  
0.275 -0.5 0  
0.3 -0.5 0  
0.325 -0.5 0  
0.35 -0.5 0  
0.375 -0.5 0  
0.4 -0.5 0  
0.425 -0.5 0  
0.45 -0.5 0  
0.475 -0.5 0  
0.5 -0.475 0  
0.5 -0.45 0  
0.5 -0.425 0  
0.5 -0.4 0  
0.5 -0.375 0  
0.5 -0.35 0  
0.5 -0.325 0  
0.5 -0.3 0  
0.5 -0.275 0  
0.5 -0.25 0  
0.5 -0.225 0  
0.5 -0.2 0  
0.5 -0.175 0  
0.5 -0.15 0  
0.5 -0.125 0  
0.5 -0.1 0  
0.5 -0.075 0  
0.5 -0.05 0  
0.5 -0.025 0  
0.5 -1.3761214e-12 0  
0.5 0.025 0  
0.5 0.05 0  
0.5 0.075 0  
0.5 0.1 0  
0.5 0.125 0  
0.5 0.15 0  
0.5 0.175 0  
0.5 0.2 0  
0.5 0.225 0  
0.5 0.25 0  
0.5 0.275 0  
0.5 0.3 0  
0.5 0.325 0  
0.5 0.35 0  
0.5 0.375 0  
0.5 0.4 0  
0.5 0.425 0  
0.5 0.45 0  
0.5 0.475 0  
0.475 0.5 0  
0.45 0.5 0  
0.425 0.5 0  
0.4 0.5 0  
0.375 0.5 0  
0.35 0.5 0  
0.325 0.5 0  
0.3 0.5 0  
0.275 0.5 0  
0.25 0.5 0  
0.225 0.5 0  
0.2 0.5 0  
0.175 0.5 0  
0.15 0.5 0  
0.125 0.5 0  
0.1 0.5 0  
0.075 0.5 0  
0.05 0.5 0  
0.025 0.5 0  
1.3761214e-12 0.5 0  
-0.025 0.5 0  
-0.05 0.5 0  
-0.075 0.5 0  
-0.1 0.5 0  
-0.125 0.5 0  
-0.15 0.5 0  
-0.175 0.5 0  
-0.2 0.5 0  
-0.225 0.5 0  
-0.25 0.5 0  
-0.275 0.5 0  
-0.3 0.5 0  
-0.325 0.5 0  
-0.35 0.5 0  
-0.375 0.5 0  
-0.4 0.5 0  
-0.425 0.5 0  
-0.45 0.5 0  
-0.475 0.5 0  
-0.5 0.475 0  
-0.5 0.45 0  
-0.5 0.425 0  
-0.5 0.4 0  
-0.5 0.375 0  
-0.5 0.35 0  
-0.5 0.325 0  
-0.5 0.3 0  
-0.5 0.275 0  
-0.5 0.25 0  
-0.5 0.225 0  
-0.5 0.2 0  
-0.5 0.175 0  
-0.5 0.15 0  
-0.5 0.125 0  
-0.5 0.1 0  
-0.5 0.075 0  
-0.5 0.05 0  
-0.5 0.025 0  
-0.5 1.3761214e-12 0  
-0.5 -0.025 0  
-0.5 -0.05 0  
-0.5 -0.075 0  
-0.5 -0.1 0  
-0.5 -0.125 0  
-0.5 -0.15 0  
-0.5 -0.175 0  
-0.5 -0.2 0  
-0.5 -0.225 0  
-0.5 -0.25 0  
-0.5 -0.275 0  
-0.5 -0.3 0  
-0.5 -0.325 0  
-0.5 -0.35 0  
-0.5 -0.375 0  
-0.5 -0.4 0  
-0.5 -0.425 0  
-0.5 -0.45 0  
-0.5 -0.475 0  
-0.002115384 -0.00023065208 0  
-0.20714286 -0.20714286 0  
0.20714286 -0.20714286 0  
0.20714286 0.20714286 0  
-0.20714286 0.20714286 0  
-0.28155318 -0.0017231192 0  
0.0017231192 -0.28155318 0  
0.28155318 0.0017231192 0  
-0.0017231192 0.28155318 0  
0.3319978 -0.33098683 0  
0.33098683 0.3319978 0  
-0.3319978 0.33098683 0  
-0.33098683 -0.3319978 0  
-0.14015679 -0.06698606 0  
0.06698606 -0.14015679 0  
0.14015679 0.06698606 0  
-0.06698606 0.14015679 0  
-0.1387125 -0.34573975 0  
0.34573975 -0.1387125 0  
0.1387125 0.34573975 0  
-0.34573975 0.1387125 0  
0.14046866 -0.34602854 0  
0.34602854 0.14046866 0  
-0.14046866 0.34602854 0  
-0.34602854 -0.14046866 0  
-0.05869875 -0.16617337 0  
0.18217777 -0.061504476 0  
0.062312964 0.18362015 0  
-0.18362015 0.062312964 0  
-0.034321424 -0.38563195 0  
0.38563195 -0.034321424 0  
0.034321424 0.38563195 0  
-0.38563195 0.034321424 0  
0.39586002 -0.2428538 0  
0.2428538 0.39586002 0  
-0.39586002 0.2428538 0  
-0.2428538 -0.39586002 0  
0.23688246 -0.38952246 0  
0.38952246 0.23688246 0  
-0.23688246 0.38952246 0  
-0.38952246 -0.23688246 0  
-0.24287231 -0.09948847 0  
0.09948847 -0.24287231 0  
0.24287231 0.09948847 0  
-0.09948847 0.24287231 0  
-0.11560815 -0.24300627 0  
0.24300627 -0.11560815 0  
0.11560815 0.24300627 0  
-0.24300627 0.11560815 0  
-0.40192315 -0.4008276 0  
0.4008276 -0.40192315 0  
0.40192315 0.4008276 0  
-0.4008276 0.40192315 0  
0.06409326 -0.40289903 0  
0.40289903 0.06409326 0  
-0.06409326 0.40289903 0  
-0.40289903 -0.06409326 0  
0.2962961 -0.23982804 0  
0.23982804 0.2962961 0  
-0.2962961 0.23982804 0  
-0.23982804 -0.2962961 0  
-0.28087237 -0.21196799 0  
0.21196799 -0.28087237 0  
0.28087237 0.21196799 0  
-0.21196799 0.28087237 0  
-0.0901279 0.007867504 0  
-0.05002927 -0.07494272 0  
0.0873353 -0.009871756 0  
0.0071518295 0.09216282 0  
-0.14120433 -0.1484696 0  
-0.14581114 0.13960092 0  
0.1458264 -0.14505939 0  
0.13960092 0.14581114 0  
0.41838804 -0.3182741 0  
0.3182741 0.41838804 0  
-0.41838804 0.3182741 0  
-0.3182741 -0.41838804 0  
0.32118136 -0.41712493 0  
0.41712493 0.32118136 0  
-0.32118136 0.41712493 0  
-0.41712493 -0.32118136 0  
-0.19707234 -0.014843048 0  
0.018050108 -0.20183705 0  
0.19707234 0.014843048 0  
-0.014843048 0.19707234 0  
-0.10938372 -0.41847488 0  
0.41847488 -0.10938372 0  
0.10938372 0.41847488 0  
-0.41847488 0.10938372 0  
0.15773043 -0.4267032 0  
0.4267032 0.15773043 0  
-0.15773043 0.4267032 0  
-0.4267032 -0.15773043 0  
-0.3204562 -0.07174808 0  
0.07174808 -0.3204562 0  
0.3204562 0.07174808 0  
-0.07174808 0.3204562 0  
0.02801032 -0.07269879 0  
-0.31817523 0.069836795 0  
-0.069836795 -0.31817523 0  
0.31817523 -0.069836795 0  
0.069836795 0.31817523 0  
0.43106207 -0.17757268 0  
0.17757268 0.43106207 0  
-0.43106207 0.17757268 0  
-0.17757268 -0.43106207 0  
0.0703783 0.071201205 0  
-0.051593844 0.064346604 0  
0.099701226 -0.08333426 0  
0.2863281 -0.17248559 0  
0.17248559 0.2863281 0  
-0.2863281 0.17248559 0  
-0.17248559 -0.2863281 0  
-0.2341888 0.04979648 0  
-0.049194112 -0.231281 0  
0.23358595 -0.04946041 0  
0.04979648 0.2341888 0  
-0.009939441 -0.13691185 0  
-0.26560438 -0.17864102 0  
0.17864102 -0.26560438 0  
0.26560438 0.17864102 0  
-0.17864102 0.26560438 0  
0.013302229 -0.43510666 0  
0.43510666 0.013302229 0  
-0.013302229 0.43510666 0  
-0.43510666 -0.013302229 0  
0.09432827 0.114700764 0  
-0.11539384 0.093188405 0  
-0.3413634 -0.005100272 0  
0.005100272 -0.3413634 0  
0.3413634 0.005100272 0  
-0.005100272 0.3413634 0  
-0.19817708 -0.3508856 0  
0.3508856 -0.19817708 0  
0.19817708 0.3508856 0  
-0.3508856 0.19817708 0  
-0.34100306 -0.27216324 0  
0.27216324 -0.34100306 0  
0.34100306 0.27216324 0  
-0.27216324 0.34100306 0  
-0.20269383 -0.14403741 0  
0.14393912 -0.2028372 0  
0.2026342 0.14393856 0  
-0.14393856 0.2026342 0  
-0.1030633 -0.10524017 0  
-0.4394695 -0.104853734 0  
0.104853734 -0.4394695 0  
0.4394695 0.104853734 0  
-0.104853734 0.4394695 0  
-0.44156647 -0.44156647 0  
0.44156647 -0.44156647 0  
0.44156647 0.44156647 0  
-0.44156647 0.44156647 0  
-0.2683254 -0.44465622 0  
0.44465622 -0.2683254 0  
0.2683254 0.44465622 0  
-0.44465622 0.2683254 0  
0.2654342 -0.4435478 0  
0.4435478 0.2654342 0  
-0.2654342 0.4435478 0  
-0.4435478 -0.2654342 0  
-0.27373606 -0.34534052 0  
0.34534052 -0.27373606 0  
0.27373606 0.34534052 0  
-0.34534052 0.27373606 0  
-0.05307205 -0.4481981 0  
0.4481981 -0.05307205 0  
0.05307205 0.4481981 0  
-0.4481981 0.05307205 0  
-0.35614902 -0.19390328 0  
0.19390328 -0.35614902 0  
0.35614902 0.19390328 0  
-0.19390328 0.35614902 0  
-0.14022674 -0.012452113 0  
0.14171903 0.011271359 0  
-0.01125192 0.14089845 0  
-0.19556868 -0.06932378 0  
0.070511825 -0.19668652 0  
0.19556868 0.06932378 0  
-0.06932378 0.19556868 0  
-0.24951252 -0.039742906 0  
0.04037078 -0.2503529 0  
0.24951252 0.039742906 0  
-0.039742906 0.24951252 0  
0.44100407 -0.36164257 0  
0.36164257 0.44100407 0  
-0.44100407 0.36164257 0  
-0.36164257 -0.44100407 0  
-0.4451273 -0.36589316 0  
0.36589316 -0.4451273 0  
0.4451273 0.36589316 0  
-0.36589316 0.4451273 0  
0.1121834 -0.30242515 0  
0.30242515 0.1121834 0  
-0.1121834 0.30242515 0  
-0.30242515 -0.1121834 0  
-0.115146436 -0.19087775 0  
0.19190264 -0.11309679 0  
0.11520548 0.19263776 0  
-0.19263776 0.11520548 0  
-0.08287991 -0.37025127 0  
0.37025127 -0.08287991 0  
0.08287991 0.37025127 0  
-0.37025127 0.08287991 0  
0.23791528 -0.24381089 0  
0.24381089 0.23791528 0  
-0.23791528 0.24381089 0  
-0.24381089 -0.23791528 0  
-0.44626984 -0.21174923 0  
0.21174923 -0.44626984 0  
0.44626984 0.21174923 0  
-0.21174923 0.44626984 0  
0.35174853 -0.37705234 0  
0.37705234 0.35174853 0  
-0.35174853 0.37705234 0  
-0.37705234 -0.35174853 0  
-0.048605647 -0.023262763 0  
-0.1551113 -0.21381997 0  
0.21381997 -0.1551113 0  
0.1551113 0.21381997 0  
-0.21381997 0.1551113 0  
-0.29403278 -0.30027482 0  
0.30027482 -0.29403278 0  
0.29403278 0.30027482 0  
-0.30027482 0.29403278 0  
0.12173745 -0.390654 0  
0.390654 0.12173745 0  
-0.12173745 0.390654 0  
-0.390654 -0.12173745 0  
-0.12236246 -0.2979882 0  
0.2979882 -0.12236246 0  
0.12236246 0.2979882 0  
-0.2979882 0.12236246 0  
-0.0945969 -0.046371013 0  
0.035276897 -0.027358124 0  
-0.0076714605 0.051946 0  
-0.30809116 -0.17165439 0  
0.17165439 -0.30809116 0  
0.30809116 0.17165439 0  
-0.17165439 0.30809116 0  
-0.16592422 -0.10879113 0  
0.10700909 -0.1687818 0  
0.16864619 0.10664837 0  
-0.10664837 0.16864619 0  
-0.16784625 -0.38069874 0  
0.38069874 -0.16784625 0  
0.16784625 0.38069874 0  
-0.38069874 0.16784625 0  
-0.4563872 -0.05993889 0  
0.05993889 -0.4563872 0  
0.4563872 0.05993889 0  
-0.05993889 0.4563872 0  
0.31103167 -0.37412483 0  
0.37412483 0.31103167 0  
-0.31103167 0.37412483 0  
-0.37412483 -0.31103167 0  
-0.3909646 -0.012754724 0  
0.012754724 -0.3909646 0  
0.3909646 0.012754724 0  
-0.012754724 0.3909646 0  
0.44915667 -0.21679194 0  
0.21679194 0.44915667 0  
-0.44915667 0.21679194 0  
-0.21679194 -0.44915667 0  
0.045831423 0.12033131 0  
-0.12662303 0.045442794 0  
-0.3107799 -0.37355793 0  
0.37355793 -0.3107799 0  
0.3107799 0.37355793 0  
-0.37355793 0.3107799 0  
0.04152367 0.021693805 0  
-0.08040017 -0.2675595 0  
0.26794365 -0.08044455 0  
0.080500565 0.2680441 0  
-0.2680441 0.080500565 0  
-0.13753757 -0.45578164 0  
0.45578164 -0.13753757 0  
0.13753757 0.45578164 0  
-0.45578164 0.13753757 0  
-0.05507968 -0.12135967 0  
0.14172421 -0.09428923 0  
0.2571752 -0.19664502 0  
[...]
POINT_DATA 2173 
SCALARS T float 
LOOKUP_TABLE default 
2.755101774301597e-19 
-1.140896137269563e-18 
-6.487781784808457e-18 
-1.0371720358482342e-19 
5.9789133630611996e-18 
4.031874518086131e-18 
2.3561323247027396e-17 
1.9523256413908946e-17 
4.13230886691445e-17 
5.007169693231499e-17 
3.3088078397559263e-17 
5.557039725929857e-17 
7.678621516669844e-17 
2.294231968762945e-17 
4.5036833579715866e-17 
7.334449310693549e-19 
4.0864068929443004e-17 
8.279308398408211e-18 
4.622029356486572e-17 
-1.8798462463639377e-17 
6.289008915297952e-17 
4.52118045269835e-17 
-9.251246652031141e-17 
-2.4602452646434968e-18 
7.983396817587149e-17 
-1.632574864420931e-16 
2.4745467799177293e-16 
-1.9172740181876162e-16 
-1.1283615819829087e-16 
8.570164234355097e-17 
-2.8677378614007754e-16 
2.461067986287838e-16 
-1.6886072327570474e-16 
-2.1358715118895763e-16 
1.6690762934537166e-16 
-5.186860859495321e-16 
-2.8940510930105245e-17 
-3.1830646792182013e-16 
-1.4559436234731518e-16 
-3.0914478146692825e-17 
-1.9931110986117517e-16 
-3.040373489011261e-17 
5.916967780426617e-17 
-6.651363192505727e-17 
-2.27374099964338e-17 
1.4626189408268282e-16 
-1.6572899472455212e-16 
3.4167062472560325e-17 
2.803953934767531e-16 
-1.2826292145254502e-16 
2.6808163178443005e-16 
-6.632899144894323e-16 
3.9776071600302505e-16 
5.0018497675105134e-17 
-1.6101833253315608e-16 
1.8085703630887694e-16 
7.352906566979705e-17 
-1.9605652970169273e-16 
-3.8270974603167e-17 
1.3987208185100676e-16 
7.323628186258001e-18 
-8.512201592791488e-16 
6.036094337146977e-16 
-3.126608507412986e-16 
-6.018207911219704e-17 
9.851991307882743e-16 
-2.2626030752884485e-15 
-7.581237454081916e-16 
-3.273113586315437e-16 
-4.669668010261093e-16 
-1.0134705308913654e-16 
-8.255209560993547e-17 
2.54114016079517e-17 
1.3372563113861795e-16 
-9.621103933569186e-16 
-2.2476503253045117e-16 
-6.410188368126426e-17 
7.629014991763799e-17 
-3.741905567781517e-18 
1.915547735563305e-16 
2.556855917448692e-17 
-6.250112968296119e-17 
4.809941368690882e-17 
5.895428367442023e-17 
-3.2358731702602613e-16 
1.5447681425926943e-16 
5.410049556609212e-17 
2.465942313663992e-16 
-1.6910993556739475e-16 
8.537649921429401e-16 
-6.555088171249136e-16 
3.088356130788546e-16 
1.5824043492091995e-16 
1.0254345542917112e-16 
-2.744477227760827e-17 
1.5335856570960174e-16 
-3.177603265985282e-17 
7.686736364952889e-17 
-4.8820587724770535e-17 
2.4124461408518695e-17 
1.162876745296335e-17 
-2.6174391990948202e-17 
2.1432183123986316e-17 
-1.553190001603262e-17 
2.1089872503327188e-19 
-2.376522933425162e-18 
-2.2708997278237338e-18 
-5.86446612320292e-19 
1.1223190875828956e-18 
-2.3144396340585317e-18 
5.826285176899911e-18 
-3.8639391124202796e-18 
6.013086566824028e-18 
5.424019292287392e-18 
-7.427199292614347e-18 
6.605448070180263e-19 
-8.317837159715163e-19 
7.461013523465781e-19 
-7.797897280148311e-18 
-5.3895994756812965e-20 
3.0620490981388987e-18 
-2.9171161799126786e-18 
1.5479227430287175e-18 
9.755423817453082e-18 
3.2162649019491668e-18 
5.360955433097496e-18 
4.60937495215661e-18 
3.0182645319966917e-18 
1.1313662995383912e-17 
1.1493389752509375e-18 
-2.1157942731609874e-18 
3.6017991570281874e-18 
6.497852432543695e-19 
-6.358896928864082e-19 
5.977700488556696e-18 
9.939646663845257e-19 
5.9379990668092726e-18 
-3.1223536587035057e-18 
1.9703128949947423e-18 
7.627869931704105e-18 
-1.147864816767005e-17 
1.8545056503830966e-17 
-2.756949354400408e-17 
1.8870940806495252e-17 
-1.2465256427701739e-17 
2.5545586727992557e-18 
-2.097135671401911e-18 
8.745909680770214e-18 
-8.764380229550548e-18 
1.0433500531412931e-17 
2.0718638929216125e-17 
-8.373631646605497e-18 
9.94078886523043e-18 
-1.6879551934691367e-17 
2.0137094248730916e-18 
-1.2102705044973577e-17 
-1.4934419765518195e-17 
-1.930928515205053e-17 
-5.722997308339145e-18 
-4.679796278291685e-18 
6.490693463690876e-6 
-4.186845388310305e-6 
0.0007243988546991869 
0.09619268931572816 
-1.9026713310322096e-6 
-1.4315959927736438e-5 
2.7186616566109905e-5 
-0.0007621131089349452 
0.08275896986205428 
-9.644477408312797e-6 
0.0003381260899186243 
-4.5087228209481653e-7 
-1.6550936454580966e-5 
-4.1337819507318737e-5 
-0.00017483260917198882 
0.0037603015746777344 
0.001234054919889467 
-4.851146398862764e-5 
0.0009316990159621209 
0.04813060974335241 
3.920219587067593e-6 
0.00022950088707857913 
-0.0011962080263219 
-1.3171362724086013e-5 
-1.2228190948485993e-5 
2.375689161210276e-5 
-0.0002657269143111999 
0.36620076936026347 
-7.493617697224011e-7 
5.7760020829850705e-6 
-0.00043430892965034526 
0.004339903862478117 
3.471119913695869e-6 
0.000426507759342901 
0.0005243753888880231 
-1.2501888164774106e-6 
-1.7793043491593574e-5 
-0.00013422836135353272 
7.884582683800978e-5 
-3.944122802615351e-6 
-6.282772608957166e-6 
-5.672805160012641e-6 
-0.00016041136582227515 
0.001668868093078943 
0.0008438604948327759 
3.839411942692692e-6 
-0.0009459632289042464 
0.6143075662131919 
-1.2845557059846016e-6 
-7.902025443871187e-6 
-5.891300927135616e-5 
0.0006864127514507749 
1.326528640792662e-6 
7.23813990757894e-5 
0.0008198284220750653 
-9.638483026440487e-5 
-1.8754944567369478e-5 
0.00019056187346983073 
0.013491926264015942 
1.3266764351445188e-6 
-3.279547847556612e-5 
1.2054687600210845e-6 
8.81049315504319e-5 
0.003296748884596322 
-3.061715179029382e-7 
-9.308795867214117e-7 
2.270085799161225e-5 
-0.0007575539694426516 
0.006445297226694066 
-4.339910825339795e-6 
-4.589424106560959e-6 
-0.00015928869619814937 
0.17130297350636992 
-9.510705106483985e-5 
0.0005205517595279873 
-7.225178460974777e-7 
-9.715267684648117e-6 
-5.919108770941777e-5 
-0.0005590644124174466 
-4.5859341616410134e-7 
-2.223693422148238e-5 
-3.4185653838715068e-6 
-0.00010603667853802474 
0.0005696007373521269 
0.06656445308523064 
-8.204129188813774e-6 
-0.00013217626547717956 
0.000809291823554998 
-8.585898813759651e-7 
-0.00013559239519755925 
-0.00021754898088360557 
-2.084468949866539e-6 
1.0411774972707181e-5 
6.0048287264354e-6 
0.00018732581045693866 
-0.00248267317620577 
0.0011315798244253181 
0.0001746928953490924 
-2.3802622658176224e-6 
3.0078581621556932e-5 
-0.0010194871666557742 
0.14951774115105199 
0.0006759893553160601 
3.073148384086411e-5 
5.3354194941317166e-6 
-1.9846479701125874e-5 
0.006627233649436301 
3.6138697580496844e-5 
-0.00040460085496066994 
0.00010673300775688087 
0.15030313686016447 
2.0925551284251827e-7 
-2.2841429627094456e-6 
-1.1424307628899633e-5 
1.795074386875606e-5 
-0.0017115294248184777 
0.43497566419926653 
9.780973368493492e-5 
-1.1246447222241633e-5 
0.00012780411665927328 
0.003964388351376684 
-4.240151854875441e-6 
7.916872626368408e-6 
0.0002524666958871163 
-0.00011106850099034936 
8.12723397580894e-6 
0.0671828008159958 
-6.335807985473659e-6 
-5.522087661192409e-7 
9.256743467156033e-5 
-0.001825687074846076 
0.014473134161283421 
-4.3251063874945924e-5 
0.000879901342952467 
0.008280043518416094 
5.467140236794737e-6 
-1.8016196889518102e-5 
-1.5188332568031003e-5 
0.0010010561429200174 
1.157848990791213e-6 
9.803053079535907e-6 
0.00014506994286205121 
0.03534540383543614 
-2.685555866113749e-5 
4.071433804179314e-6 
-5.083237043007561e-6 
-0.0001647023016445847 
-0.000610234483191667 
-2.618294663165185e-7 
3.448304970091033e-6 
-3.109905911218885e-5 
0.00023480101132209008 
2.8928177927294672e-8 
-2.2583307714698547e-5 
0.00020797884793841644 
0.0004150597578250595 
1.5170478140436743e-6 
4.875857164008741e-5 
8.015648245690008e-5 
-1.3425575684117991e-6 
-8.073556802373855e-6 
-5.717740510846463e-6 
0.00019925571637820604 
0.0026968967894698942 
1.2942750963151908e-6 
-3.0131401732363565e-5 
-0.00022315872038887864 
4.471069563603229e-6 
-4.061226924874408e-6 
-1.4887020811925506e-5 
-0.00023023601453739249 
0.00017156063289856794 
1.3452822647891506e-6 
-1.0628832440555056e-5 
-0.0017744796192763995 
0.021670135110468353 
-2.6625745874192592e-5 
0.00018969889366241604 
0.003006627338272598 
0.004538090937998096 
-1.7658079966868676e-6 
0.00012736194836165344 
0.0028433860227575856 
0.0296365513328754 
5.887886761993006e-5 
0.00039973819989381245 
2.528525384735316e-6 
-2.2834356063653734e-6 
-9.47146745018293e-6 
6.195492589941794e-5 
0.0001667388640793944 
-2.41187856007443e-7 
-0.0001517517540871156 
-0.0006322833151736146 
-7.075101021048858e-6 
3.6550616728864783e-6 
-2.586843209115026e-5 
-0.0007900070010452203 
0.5141021460759518 
-2.850779159092817e-6 
3.3097130530263395e-5 
-0.0002352760285301346 
0.019670899595248505 
5.308292875728185e-6 
-0.00017619424736206414 
0.019165463694589577 
-1.1500633761104865e-6 
2.8470802555085723e-5 
1.1495690441925568e-5 
0.0001220792167865502 
0.00023679775166288787 
2.9860028436414705e-6 
-0.00012357014171582835 
-0.0002542815726198218 
-3.2868263547398207e-6 
7.016050156320156e-6 
3.4191257924515892e-6 
4.597203779948849e-5 
-0.0007812199640508261 
0.4105650765562565 
4.3806251083457076e-7 
8.828426936903203e-6 
0.00016724615879762478 
0.0006944716002517458 
-2.8068675944786356e-6 
-0.00010723745044862032 
0.001111690727864742 
-1.9790483058195287e-5 
-1.243204923491858e-5 
-6.127865312462832e-5 
0.0014544445890729723 
0.26562029148542093 
1.8030504322515206e-6 
3.583697776156196e-5 
0.00030022843296585993 
0.000223949427353214 
-7.61937662979784e-6 
1.58332112739869e-5 
0.0004042584668833337 
-3.852164059513586e-6 
2.392212787350216e-6 
-4.8600905155918075e-5 
0.025384849852103816 
6.77431978288399e-5 
5.132995178144406e-6 
0.00020408830059265662 
0.005008481949113168 
-3.2989514274981843e-6 
-2.1949089211190873e-5 
-1.7978654619176804e-5 
0.0007178406539516577 
-1.48199172209107e-5 
-0.00016555263338797287 
-0.0003191168118035898 
-2.303210217416009e-6 
-5.195691480829464e-6 
-7.749775005135325e-6 
-0.0001409473708893413 
0.0001546256295307244 
0.00042604675157702064 
0.00012816795550024226 
-0.00010402202860251226 
3.651661065031149e-8 
-3.1459239557741704e-5 
0.049834305434222896 
7.1952061678694516e-6 
-2.390598871842811e-5 
0.00020022968602018414 
0.0002297858616350352 
-2.9014392672992916e-6 
0.00020640000718923884 
-4.5024679713808256e-5 
0.0008866959692256864 
0.47044394584206384 
-8.561917169284832e-7 
-2.595520437546669e-5 
0.00021904260847771314 
5.323426836760407e-5 
-2.6051660627154963e-6 
1.3623847372327066e-5 
0.0002477252159127044 
-0.00022441849546167867 
0.12249053336935284 
2.6886317086207564e-6 
4.52203035955911e-6 
-0.0007847212515523591 
-6.980720147477554e-8 
2.4595886240986272e-5 
-0.0003972236606863305 
-0.0001575659234551595 
-1.7143977677226435e-6 
-6.437556705133339e-5 
-4.280747912860513e-5 
1.9914325731529407e-6 
1.3509188829958462e-5 
-4.801757737275745e-5 
0.00015399044605444399 
-6.385383606666424e-6 
-7.153141599853487e-6 
0.00039966997527839104 
0.0017926485308651994 
-8.348271656737675e-6 
4.81183183161106e-5 
0.0007483741804727061 
0.003379139794579221 
-3.7049979822481063e-6 
0.0001073517305138529 
-8.663202311965255e-5 
-2.2889907860836242e-5 
0.0025287118453406706 
0.23733544973343992 
2.803715047832766e-6 
2.016384553714962e-6 
8.683726057786967e-5 
0.0003081359926575412 
0.1669299908188041 
1.5101747977019179e-5 
-0.00010451976024113699 
0.00040238617954536563 
4.187580326736254e-6 
-0.00020643295859766383 
0.0002423597014657297 
8.995540547908107e-5 
-0.0024200107180848184 
-5.058648145546163e-6 
7.440843694700707e-6 
2.9642262335921346e-6 
-0.00010401477736620282 
0.0009157081288816607 
-2.773380127535283e-7 
6.409128277092897e-6 
-5.937802865511934e-6 
-7.836203872218669e-5 
0.0013399194301209492 
0.042788509321670526 
-1.2373807626570145e-6 
0.0002380813780146869 
9.222051369030966e-5 
-3.90531337821803e-6 
-3.568487884466441e-5 
0.001910215972637985 
0.0011924747180199042 
-3.218127708379681e-6 
1.1502945283702805e-6 
-9.828431414315234e-5 
0.001345849078171065 
-4.181987332000801e-5 
-1.5880736440175105e-5 
-3.2751985411493447e-6 
-0.00039596295992860907 
0.18510815889029592 
0.00014434461922023178 
0.00046946587905075853 
-8.743922040798096e-7 
1.3475096911705237e-6 
-4.881513312729477e-5 
0.0009321611709390294 
0.011799950889458111 
-4.06759678531426e-6 
4.781817257113077e-5 
-0.00020145752211119276 
-1.396508025022959e-5 
-2.9594925640789025e-7 
-1.6621274746425673e-6 
3.080855685773788e-5 
0.0008696465496882983 
1.0481946793092416e-6 
-6.891101709935643e-5 
0.0001967304193235341 
-3.4440684592883523e-6 
-3.6950332928726106e-6 
-6.349267332131332e-5 
8.352449802345263e-5 
-4.220708152866988e-6 
-9.43139045394597e-6 
-2.911496614814406e-6 
-3.846402337971254e-5 
0.0028884512118945724 
0.2000173320103514 
6.016708595168323e-6 
0.0002717567974199544 
0.01241323849209492 
0.23717647289171348 
7.784789331801495e-6 
2.640315894786283e-6 
0.00017753332488201475 
0.0016284795298937226 
0.011789870280156073 
-1.1312347402297688e-6 
-0.0001285192441340801 
0.00020943327536307053 
0.001516748938017653 
-0.0006343465049780127 
3.349663496970685e-6 
0.0005584310095941093 
0.020100047900419544 
1.2207494069572153e-6 
-0.0001260379985609328 
6.149287977883213e-5 
2.3634611060058103e-6 
-2.3376264938660238e-5 
0.00189487295061329 
-1.5604680100689624e-5 
0.0005281311272511962 
0.0027898733213806747 
0.0003061682637259511 
0.00010766530904895542 
0.0005600730478534134 
-2.996116278709471e-5 
9.134968482817862e-6 
0.001124119373385673 
0.37883992309686365 
4.1904895258032937e-7 
3.0691243433318765e-5 
0.012126738128812065 
3.0223434480733277e-5 
-0.00010548481534867467 
0.0024907551893089837 
-1.1286454186920546e-6 
-6.600748436893594e-6 
-2.337264902457503e-7 
-8.788008912934258e-6 
0.0008436649454056048 
0.08878573834797798 
-2.00453445984195e-6 
6.10902043406714e-5 
0.0003870802831377563 
-1.1272155662088424e-6 
-2.3833782618923057e-5 
0.0011940019413198724 
0.6202928709709296 
2.6798229184186453e-6 
0.0003553007776803022 
0.001335436528517409 
-3.1122015569527373e-6 
2.084155218002608e-5 
-1.1933826321641678e-5 
0.00040334682026999647 
0.00022327857765890572 
2.1974494041372282e-6 
-1.3818300398126315e-5 
0.0004893795678652002 
0.05937779688528468 
1.809124212444377e-7 
2.1941348211434248e-5 
1.2633083394164803e-5 
0.032977344116897976 
-1.6217228436426081e-6 
0.03902454743776859 
1.0709899095813607e-5 
2.9913736339442626e-5 
7.528662021368949e-5 
2.6629276703643985e-7 
2.6560134162182343e-6 
-5.059052094745287e-6 
5.722823920508185e-6 
0.00011678749518002367 
-6.112769602385285e-7 
6.409478524133805e-6 
0.00013892028379410842 
0.006347173125087539 
-2.551992503058974e-5 
1.1615388666497661e-6 
6.236486611109944e-5 
0.12794155857550377 
-1.0815001361764846e-5 
0.00010314087014462128 
2.574602422982347e-7 
0.0005289710893836869 
0.00037434973658941783 
-3.87307277842806e-6 
-4.873150653396658e-5 
7.348899276021914e-6 
-0.0003478019658883935 
-0.0001288817825933024 
-7.567811538029713e-7 
-0.00015581706791186278 
0.024242618824485074 
-3.94615219090227e-6 
-4.248042570457863e-6 
4.769435143113134e-5 
-0.0006057357611049671 
0.00016778844954861108 
5.879908208239936e-6 
-4.240142509098131e-6 
-3.986478593008891e-5 
3.368244660871866e-5 
5.202495212066426e-5 
0.0007521662507047933 
7.249230911113653e-5 
0.291492813139698 
0.5057360542813537 
0.36695783224472195 
-3.0588035049157106e-6 
-7.344662166210141e-7 
3.3190254794982744e-6 
-4.253917460828253e-5 
0.00011865969657676876 
-1.7067496348938422e-5 
0.00040854019987630056 
-0.0016978151725376615 
0.0017231605794329591 
0.3435480051125857 
0.3163966485810889 
0.4427977644282201 
-1.999945923008099e-6 
1.3004740217875862e-6 
7.682054301236354e-6 
9.695912125156854e-6 
-3.530669273297942e-5 
-6.430049025294927e-6 
-3.3548644724798364e-7 
-0.0002880512030569419 
0.0009327136551443503 
0.19182948370332598 
0.33080567446929193 
1.1496404119863647e-6 
-5.484413331773894e-6 
1.2778282866832683e-5 
9.533298241263125e-6 
5.924780173901934e-5 
-0.0014781182650124936 
0.5394140274039025 
0.5239821376948002 
0.024746795191618185 
0.0702883243605574 
0.022808575817082104 
-7.640283964719641e-6 
-1.0151656961682342e-5 
2.908355820081608e-5 
1.5986238825709767e-5 
4.473617203859819e-6 
1.9319029968177956e-5 
-1.2948371332986656e-5 
3.6813898552271884e-6 
-0.00026699387580729304 
-0.0004600656490928994 
0.00016675106514066983 
-0.000401564757383496 
-3.803202967765568e-5 
0.0002117174509353526 
-1.934412065864354e-7 
1.4725248972814052e-6 
1.957519724951734e-6 
-3.3179970186638504e-6 
9.858815485177847e-6 
0.00010841905298029029 
2.6611761288871566e-5 
-7.264175834110994e-5 
9.57354033752421e-7 
2.1370542935929717e-6 
-5.605846454957568e-7 
2.583396524936159e-5 
1.0985809460002545e-5 
0.00015477055627803355 
-9.440616556042015e-5 
-0.00010410233217621332 
9.684987716374739e-5 
1.9651113729703065e-6 
2.0175649199513047e-6 
2.0108226607414667e-6 
-8.184393660765466e-7 
3.9780872207401584e-6 
3.8127890490473036e-5 
-4.062569000158024e-5 
-1.320820891467813e-6 
-0.0021209434696033945 
0.0014603284020172625 
0.0013358473990312772 
0.13636889357327345 
0.06267002198384901 
0.04249032279629984 
-0.0002735077306884755 
6.687319156749775e-5 
0.00016417897495976498 
-0.0002798406052507328 
-0.00015022292646625602 
0.00041980603244278126 
5.755711072273513e-7 
-4.314735157069746e-6 
5.485158299765426e-6 
3.500267020054705e-5 
-1.2105325880867872e-5 
2.0681465407220454e-5 
0.0002349576127074478 
-0.00012423203608561009 
-6.638691732053565e-5 
0.0005150076128097419 
-0.00029757201061831847 
-7.467847039392533e-6 
-2.388971047285774e-6 
3.5386765177385445e-6 
-2.6509660126366127e-6 
-4.953806809526335e-6 
-8.6378763447033e-6 
1.2057479726903538e-6 
1.6347212316162567e-5 
0.000189906978249741 
0.00018100628524973341 
-7.304382480652108e-7 
0.00011897683137084893 
-3.184008917153569e-5 
1.0490129638973979e-6 
-1.289898550056343e-5 
-0.00028939843581045734 
5.3876606505118186e-5 
5.9303724214245544e-5 
5.1231059526154884e-5 
4.942681297583024e-9 
-3.023708076474e-6 
2.0560513914242084e-5 
-5.692359007937248e-6 
1.4864537515105195e-5 
-1.6852285755497942e-5 
-3.296196941000111e-6 
5.2073439775893484e-6 
1.607800275824576e-5 
7.774404066811743e-5 
-9.685438308816437e-5 
0.00022774548693286597 
0.0002587973833283526 
-2.7374578283040636e-6 
4.5076654214827765e-6 
4.300023032381723e-6 
1.2097790505739627e-6 
-4.898884211821694e-5 
-6.920344930343852e-5 
0.0003521202248080884 
-0.00012782149587010303 
6.779679308923559e-7 
1.2900397738304911e-6 
5.314121680233895e-6 
-2.0606125552298027e-6 
9.08012949180107e-5 
-3.1783472540216196e-5 
-0.0017164538718011557 
-0.0004364972088892752 
0.10434620132464816 
0.028784487614176416 
-8.273634713552806e-6 
1.549580890270654e-6 
7.858285236000758e-6 
0.0001269617648410049 
-0.0001591840988719058 
2.548174761726512e-5 
0.00036501221550657326 
-0.0008997228047744712 
-5.9504472742719724e-5 
4.237863286478269e-6 
-2.07719061109292e-6 
4.514402421522396e-8 
0.012385900732927429 
0.003636556116180325 
1.4678610652370008e-5 
2.1896514511038475e-5 
7.919831368037563e-5 
-0.0005580540141288104 
0.0001721738236462319 
0.0006125692109799569 
9.431807371493234e-7 
-3.206278129230422e-6 
-3.167081822641814e-5 
7.867053324061455e-5 
0.00011414376381493683 
-0.0012492901407156485 
-0.00014677729534136558 
0.0018257589101579666 
2.773216324582164e-6 
1.526769611215735e-6 
7.342718801511604e-7 
-7.511543196482719e-6 
6.522922909214964e-6 
4.334637966763086e-7 
-0.00011919820043021064 
2.957105061634244e-5 
0.00015076942144329935 
-0.00013679768962966037 
0.0001738893754195285 
-0.00018548124385417807 
-1.5485159537797061e-6 
8.759328956892696e-7 
-1.6909037551917796e-6 
1.3443669312982438e-5 
9.71035045261373e-7 
2.9428182409553944e-6 
-8.838473964349375e-7 
3.435477699994781e-6 
3.1959654415680036e-5 
0.00016988238588117456 
6.185820145395487e-5 
0.00016673966379069087 
8.62979529681624e-7 
2.301564979702395e-6 
-3.355787860527401e-5 
-3.7857906660921925e-5 
8.929693987194052e-6 
3.0668370453766904e-5 
0.00016942231876242647 
-0.0003563183631723997 
-0.0001769078654664706 
0.0006596547356618934 
-5.783486097525695e-7 
6.418016084020704e-7 