# vtk DataFile Version 3.0 
Unstructured Grid 
ASCII 
DATASET UNSTRUCTURED_GRID
POINTS 2173 float 
-0.5 -0.5 0  
0.5 -0.5 0  
0.5 0.5 0  
-0.5 0.5 0  
-0.475 -0.5 0  
-0.45 -0.5 0  
-0.425 -0.5 0  
-0.4 -0.5 0  
-0.375 -0.5 0  
-0.35 -0.5 0  
-0.325 -0.5 0  
-0.3 -0.5 0  
-0.275 -0.5 0  
-0.25 -0.5 0  
-0.225 -0.5 0  
-0.2 -0.5 0  
-0.175 -0.5 0  
-0.15 -0.5 0  
-0.125 -0.5 0  
-0.1 -0.5 0  
-0.075 -0.5 0  
-0.05 -0.5 0  
-0.025 -0.5 0  
-1.3761214e-12 -0.5 0  
0.025 -0.5 0  
0.05 -0.5 0  
0.075 -0.5 0  
0.1 -0.5 0  
0.125 -0.5 0  
0.15 -0.5 0  
0.175 -0.5 0  
0.2 -0.5 0  
0.225 -0.5 0  
0.25 -0.5 0  
0.275 -0.5 0  
0.3 -0.5 0  
0.325 -0.5 0  
0.35 -0.5 0  
0.375 -0.5 0  
0.4 -0.5 0  
0.425 -0.5 0  
0.45 -0.5 0  
0.475 -0.5 0  
0.5 -0.475 0  
0.5 -0.45 0  
0.5 -0.425 0  
0.5 -0.4 0  
0.5 -0.375 0  
0.5 -0.35 0  
0.5 -0.325 0  
0.5 -0.3 0  
0.5 -0.275 0  
0.5 -0.25 0  
0.5 -0.225 0  
0.5 -0.2 0  
0.5 -0.175 0  
0.5 -0.15 0  
0.5 -0.125 0  
0.5 -0.1 0  
0.5 -0.075 0  
0.5 -0.05 0  
0.5 -0.025 0  
0.5 -1.3761214e-12 0  
0.5 0.025 0  
0.5 0.05 0  
0.5 0.075 0  
0.5 0.1 0  
0.5 0.125 0  
0.5 0.15 0  
0.5 0.175 0  
0.5 0.2 0  
0.5 0.225 0  
0.5 0.25 0  
0.5 0.275 0  
0.5 0.3 0  
0.5 0.325 0  
0.5 0.35 0  
0.5 0.375 0  
0.5 0.4 0  
0.5 0.425 0  
0.5 0.45 0  
0.5 0.475 0  
0.475 0.5 0  
0.45 0.5 0  
0.425 0.5 0  
0.4 0.5 0  
0.375 0.5 0  
0.35 0.5 0  
0.325 0.5 0  
0.3 0.5 0  
0.275 0.5 0  
0.25 0.5 0  
0.225 0.5 0  
0.2 0.5 0  
0.175 0.5 0  
0.15 0.5 0  
0.125 0.5 0  
0.1 0.5 0  
0.075 0.5 0  
0.05 0.5 0  
0.025 0.5 0  
1.3761214e-12 0.5 0  
-0.025 0.5 0  
-0.05 0.5 0  
-0.075 0.5 0  
-0.1 0.5 0  
-0.125 0.5 0  
-0.15 0.5 0  
-0.175 0.5 0  
-0.2 0.5 0  
-0.225 0.5 0  
-0.25 0.5 0  
-0.275 0.5 0  
-0.3 0.5 0  
-0.325 0.5 0  
-0.35 0.5 0  
-0.375 0.5 0  
-0.4 0.5 0  
-0.425 0.5 0  
-0.45 0.5 0  
-0.475 0.5 0  
-0.5 0.475 0  
-0.5 0.45 0  
-0.5 0.425 0  
-0.5 0.4 0  
-0.5 0.375 0  
-0.5 0.35 0  
-0.5 0.325 0  
-0.5 0.3 0  
-0.5 0.275 0  
-0.5 0.25 0  
-0.5 0.225 0  
-0.5 0.2 0  
-0.5 0.175 0  
-0.5 0.15 0  
-0.5 0.125 0  
-0.5 0.1 0  
-0.5 0.075 0  
-0.5 0.05 0  
-0.5 0.025 0  
-0.5 1.3761214e-12 0  
-0.5 -0.025 0  
-0.5 -0.05 0  
-0.5 -0.075 0  
-0.5 -0.1 0  
-0.5 -0.125 0  
-0.5 -0.15 0  
-0.5 -0.175 0  
-0.5 -0.2 0  
-0.5 -0.225 0  
-0.5 -0.25 0  
-0.5 -0.275 0  
-0.5 -0.3 0  
-0.5 -0.325 0  
-0.5 -0.35 0  
-0.5 -0.375 0  
-0.5 -0.4 0  
-0.5 -0.425 0  
-0.5 -0.45 0  
-0.5 -0.475 0  
-0.002115384 -0.00023065208 0  
-0.20714286 -0.20714286 0  
0.20714286 -0.20714286 0  
0.20714286 0.20714286 0  
-0.20714286 0.20714286 0  
-0.28155318 -0.0017231192 0  
0.0017231192 -0.28155318 0  
0.28155318 0.0017231192 0  
-0.0017231192 0.28155318 0  
0.3319978 -0.33098683 0  
0.33098683 0.3319978 0  
-0.3319978 0.33098683 0  
-0.33098683 -0.3319978 0  
-0.14015679 -0.06698606 0  
0.06698606 -0.14015679 0  
0.14015679 0.06698606 0  
-0.06698606 0.14015679 0  
-0.1387125 -0.34573975 0  
0.34573975 -0.1387125 0  
0.1387125 0.34573975 0  
-0.34573975 0.1387125 0  
0.14046866 -0.34602854 0  
0.34602854 0.14046866 0  
-0.14046866 0.34602854 0  
-0.34602854 -0.14046866 0  
-0.05869875 -0.16617337 0  
0.18217777 -0.061504476 0  
0.062312964 0.18362015 0  
-0.18362015 0.062312964 0  
-0.034321424 -0.38563195 0  
0.38563195 -0.034321424 0  
0.034321424 0.38563195 0  
-0.38563195 0.034321424 0  
0.39586002 -0.2428538 0  
0.2428538 0.39586002 0  
-0.39586002 0.2428538 0  
-0.2428538 -0.39586002 0  
0.23688246 -0.38952246 0  
0.38952246 0.23688246 0  
-0.23688246 0.38952246 0  
-0.38952246 -0.23688246 0  
-0.24287231 -0.09948847 0  
0.09948847 -0.24287231 0  
0.24287231 0.09948847 0  
-0.09948847 0.24287231 0  
-0.11560815 -0.24300627 0  
0.24300627 -0.11560815 0  
0.11560815 0.24300627 0  
-0.24300627 0.11560815 0  
-0.40192315 -0.4008276 0  
0.4008276 -0.40192315 0  
0.40192315 0.4008276 0  
-0.4008276 0.40192315 0  
0.06409326 -0.40289903 0  
0.40289903 0.06409326 0  
-0.06409326 0.40289903 0  
-0.40289903 -0.06409326 0  
0.2962961 -0.23982804 0  
0.23982804 0.2962961 0  
-0.2962961 0.23982804 0  
-0.23982804 -0.2962961 0  
-0.28087237 -0.21196799 0  
0.21196799 -0.28087237 0  
0.28087237 0.21196799 0  
-0.21196799 0.28087237 0  
-0.0901279 0.007867504 0  
-0.05002927 -0.07494272 0  
0.0873353 -0.009871756 0  
0.0071518295 0.09216282 0  
-0.14120433 -0.1484696 0  
-0.14581114 0.13960092 0  
0.1458264 -0.14505939 0  
0.13960092 0.14581114 0  
0.41838804 -0.3182741 0  
0.3182741 0.41838804 0  
-0.41838804 0.3182741 0  
-0.3182741 -0.41838804 0  
0.32118136 -0.41712493 0  
0.41712493 0.32118136 0  
-0.32118136 0.41712493 0  
-0.41712493 -0.32118136 0  
-0.19707234 -0.014843048 0  
0.018050108 -0.20183705 0  
0.19707234 0.014843048 0  
-0.014843048 0.19707234 0  
-0.10938372 -0.41847488 0  
0.41847488 -0.10938372 0  
0.10938372 0.41847488 0  
-0.41847488 0.10938372 0  
0.15773043 -0.4267032 0  
0.4267032 0.15773043 0  
-0.15773043 0.4267032 0  
-0.4267032 -0.15773043 0  
-0.3204562 -0.07174808 0  
0.07174808 -0.3204562 0  
0.3204562 0.07174808 0  
-0.07174808 0.3204562 0  
0.02801032 -0.07269879 0  
-0.31817523 0.069836795 0  
-0.069836795 -0.31817523 0  
0.31817523 -0.069836795 0  
0.069836795 0.31817523 0  
0.43106207 -0.17757268 0  
0.17757268 0.43106207 0  
-0.43106207 0.17757268 0  
-0.17757268 -0.43106207 0  
0.0703783 0.071201205 0  
-0.051593844 0.064346604 0  
0.099701226 -0.08333426 0  
0.2863281 -0.17248559 0  
0.17248559 0.2863281 0  
-0.2863281 0.17248559 0  
-0.17248559 -0.2863281 0  
-0.2341888 0.04979648 0  
-0.049194112 -0.231281 0  
0.23358595 -0.04946041 0  
0.04979648 0.2341888 0  
-0.009939441 -0.13691185 0  
-0.26560438 -0.17864102 0  
0.17864102 -0.26560438 0  
0.26560438 0.17864102 0  
-0.17864102 0.26560438 0  
0.013302229 -0.43510666 0  
0.43510666 0.013302229 0  
-0.013302229 0.43510666 0  
-0.43510666 -0.013302229 0  
0.09432827 0.114700764 0  
-0.11539384 0.093188405 0  
-0.3413634 -0.005100272 0  
0.005100272 -0.3413634 0  
0.3413634 0.005100272 0  
-0.005100272 0.3413634 0  
-0.19817708 -0.3508856 0  
0.3508856 -0.19817708 0  
0.19817708 0.3508856 0  
-0.3508856 0.19817708 0  
-0.34100306 -0.27216324 0  
0.27216324 -0.34100306 0  
0.34100306 0.27216324 0  
-0.27216324 0.34100306 0  
-0.20269383 -0.14403741 0  
0.14393912 -0.2028372 0  
0.2026342 0.14393856 0  
-0.14393856 0.2026342 0  
-0.1030633 -0.10524017 0  
-0.4394695 -0.104853734 0  
0.104853734 -0.4394695 0  
0.4394695 0.104853734 0  
-0.104853734 0.4394695 0  
-0.44156647 -0.44156647 0  
0.44156647 -0.44156647 0  
0.44156647 0.44156647 0  
-0.44156647 0.44156647 0  
-0.2683254 -0.44465622 0  
0.44465622 -0.2683254 0  
0.2683254 0.44465622 0  
-0.44465622 0.2683254 0  
0.2654342 -0.4435478 0  
0.4435478 0.2654342 0  
-0.2654342 0.4435478 0  
-0.4435478 -0.2654342 0  
-0.27373606 -0.34534052 0  
0.34534052 -0.27373606 0  
0.27373606 0.34534052 0  
-0.34534052 0.27373606 0  
-0.05307205 -0.4481981 0  
0.4481981 -0.05307205 0  
0.05307205 0.4481981 0  
-0.4481981 0.05307205 0  
-0.35614902 -0.19390328 0  
0.19390328 -0.35614902 0  
0.35614902 0.19390328 0  
-0.19390328 0.35614902 0  
-0.14022674 -0.012452113 0  
0.14171903 0.011271359 0  
-0.01125192 0.14089845 0  
-0.19556868 -0.06932378 0  
0.070511825 -0.19668652 0  
0.19556868 0.06932378 0  
-0.06932378 0.19556868 0  
-0.24951252 -0.039742906 0  
0.04037078 -0.2503529 0  
0.24951252 0.039742906 0  
-0.039742906 0.24951252 0  
0.44100407 -0.36164257 0  
0.36164257 0.44100407 0  
-0.44100407 0.36164257 0  
-0.36164257 -0.44100407 0  
-0.4451273 -0.36589316 0  
0.36589316 -0.4451273 0  
0.4451273 0.36589316 0  
-0.36589316 0.4451273 0  
0.1121834 -0.30242515 0  
0.30242515 0.1121834 0  
-0.1121834 0.30242515 0  
-0.30242515 -0.1121834 0  
-0.115146436 -0.19087775 0  
0.19190264 -0.11309679 0  
0.11520548 0.19263776 0  
-0.19263776 0.11520548 0  
-0.08287991 -0.37025127 0  
0.37025127 -0.08287991 0  
0.08287991 0.37025127 0  
-0.37025127 0.08287991 0  
0.23791528 -0.24381089 0  
0.24381089 0.23791528 0  
-0.23791528 0.24381089 0  
-0.24381089 -0.23791528 0  
-0.44626984 -0.21174923 0  
0.21174923 -0.44626984 0  
0.44626984 0.21174923 0  
-0.21174923 0.44626984 0  
0.35174853 -0.37705234 0  
0.37705234 0.35174853 0  
-0.35174853 0.37705234 0  
-0.37705234 -0.35174853 0  
-0.048605647 -0.023262763 0  
-0.1551113 -0.21381997 0  
0.21381997 -0.1551113 0  
0.1551113 0.21381997 0  
-0.21381997 0.1551113 0  
-0.29403278 -0.30027482 0  
0.30027482 -0.29403278 0  
0.29403278 0.30027482 0  
-0.30027482 0.29403278 0  
0.12173745 -0.390654 0  
0.390654 0.12173745 0  
-0.12173745 0.390654 0  
-0.390654 -0.12173745 0  
-0.12236246 -0.2979882 0  
0.2979882 -0.12236246 0  
0.12236246 0.2979882 0  
-0.2979882 0.12236246 0  
-0.0945969 -0.046371013 0  
0.035276897 -0.027358124 0  
-0.0076714605 0.051946 0  
-0.30809116 -0.17165439 0  
0.17165439 -0.30809116 0  
0.30809116 0.17165439 0  
-0.17165439 0.30809116 0  
-0.16592422 -0.10879113 0  
0.10700909 -0.1687818 0  
0.16864619 0.10664837 0  
-0.10664837 0.16864619 0  
-0.16784625 -0.38069874 0  
0.38069874 -0.16784625 0  
0.16784625 0.38069874 0  
-0.38069874 0.16784625 0  
-0.4563872 -0.05993889 0  
0.05993889 -0.4563872 0  
0.4563872 0.05993889 0  
-0.05993889 0.4563872 0  
0.31103167 -0.37412483 0  
0.37412483 0.31103167 0  
-0.31103167 0.37412483 0  
-0.37412483 -0.31103167 0  
-0.3909646 -0.012754724 0  
0.012754724 -0.3909646 0  
0.3909646 0.012754724 0  
-0.012754724 0.3909646 0  
0.44915667 -0.21679194 0  
0.21679194 0.44915667 0  
-0.44915667 0.21679194 0  
-0.21679194 -0.44915667 0  
0.045831423 0.12033131 0  
-0.12662303 0.045442794 0  
-0.3107799 -0.37355793 0  
0.37355793 -0.3107799 0  
0.3107799 0.37355793 0  
-0.37355793 0.3107799 0  
0.04152367 0.021693805 0  
-0.08040017 -0.2675595 0  
0.26794365 -0.08044455 0  
0.080500565 0.2680441 0  
-0.2680441 0.080500565 0  
-0.13753757 -0.45578164 0  
0.45578164 -0.13753757 0  
0.13753757 0.45578164 0  
-0.45578164 0.13753757 0  
-0.05507968 -0.12135967 0  
0.14172421 -0.09428923 0  
0.2571752 -0.19664502 0  
[...]
POINT_DATA 2173 
SCALARS T float 
LOOKUP_TABLE default 
-1.5157912503121463e-17 
-1.7965733960477823e-21 
-7.17625864532117e-19 
-5.280272528896706e-18 
-1.0335332426905148e-16 
2.574535004123765e-17 
-7.446894904790516e-16 
4.709734890070291e-16 
3.066154979186896e-16 
-1.7985197728355017e-16 
-1.5213652389573542e-16 
-2.5060112772242076e-15 
2.1506598569196443e-16 
-9.496210357863123e-16 
8.247497765009435e-16 
1.751051312682092e-16 
6.725709791386643e-17 
-2.8189755524547956e-16 
-4.3840529296432113e-16 
-1.0356231916862123e-15 
7.452408255655726e-16 
-7.152957338671729e-16 
1.2681725346983727e-16 
1.0194328170908161e-16 
-1.0457882672122639e-16 
-2.224989899050088e-17 
4.357733595685969e-16 
-6.901845937038814e-16 
-6.699829114958277e-17 
-1.7925769013268702e-16 
-6.012043753927741e-17 
-5.153772455434358e-17 
-3.0327237370503696e-17 
2.4687641608946115e-17 
2.5577224466854143e-17 
2.1289229260842348e-17 
7.989833091391018e-18 
3.975893553472872e-18 
1.940547593947327e-19 
4.675240765572855e-19 
-1.7740985403417108e-18 
3.685049063255218e-19 
6.284983671768308e-19 
-5.792178142839839e-19 
-5.773075867916419e-19 
1.9479166931545165e-18 
-1.1734955140123834e-18 
-2.939346298876923e-19 
1.866889597519731e-19 
4.1988627827547755e-19 
-1.0039893031058827e-19 
-9.113647828559108e-19 
8.732175595936133e-19 
6.098730169894226e-19 
-1.786458397529358e-19 
-1.4141763535760902e-18 
3.689569330646247e-18 
-6.436929125420724e-18 
7.15977216063573e-18 
-5.344240350123995e-18 
4.110598270495675e-18 
-1.8054601979541105e-18 
2.924482475667162e-18 
-3.8368433255062024e-18 
4.428873520274618e-18 
-7.7003690232806475e-19 
7.758978434659974e-18 
-1.6897234334127625e-17 
-3.3200065661634564e-19 
-2.558607804991322e-18 
-9.495027100700848e-18 
1.875237142332794e-17 
-1.5870702073465946e-17 
1.3145372029830307e-17 
1.7004999929113488e-17 
-1.2670711253593312e-17 
-1.4538167710104497e-17 
-6.011228883969304e-18 
2.8377402423915116e-18 
1.0782550878035913e-17 
-1.7210703721087424e-18 
4.685688790849954e-18 
-6.5623014179706425e-18 
1.0325550172341815e-17 
-1.801116968476886e-17 
2.0800881769461595e-17 
1.983129346880046e-18 
-7.003497523526455e-18 
-6.156869949503565e-18 
-3.4626321413151437e-18 
7.191552662486253e-17 
-9.017051033362326e-17 
6.356047862375634e-17 
-1.4270554530728145e-17 
-1.124759975355898e-17 
1.2088000892940251e-17 
-3.129043621452977e-17 
1.795776378775682e-17 
-6.303713011630295e-18 
1.942099264581397e-17 
-2.365451975422805e-17 
7.253996782121494e-18 
1.203627374723833e-17 
-3.624378288818915e-17 
6.638879065020588e-17 
-7.058943718771534e-17 
-5.6019670589794905e-18 
-1.4098917453741278e-17 
-4.170586638093991e-17 
9.475694430140044e-18 
-5.3554576708093136e-18 
-1.7979181047195579e-16 
3.225730790489253e-17 
-5.557343343431006e-17 
1.1586650179574169e-17 
-6.763961671889995e-17 
-1.475924553774918e-16 
-1.0024140239221596e-16 
5.0026284443041595e-17 
1.4408011161696063e-19 
5.517543328658096e-17 
-6.390952847406008e-17 
1.3016777229140873e-17 
-1.5507353234971488e-16 
2.0742381864558167e-16 
1.9336306815513867e-16 
2.1455566862286818e-16 
-9.302850938007844e-17 
9.543678262934307e-17 
3.7237892693684097e-16 
-1.5958359498786327e-16 
6.489215122859033e-16 
-1.4983031964425216e-16 
1.0160844053422957e-16 
-3.647112584378063e-17 
-2.429845430941288e-16 
1.6587849036078797e-16 
8.499332475275684e-17 
3.612041610257478e-17 
-1.545984339831458e-16 
6.90387197996024e-17 
1.424085291633658e-16 
-4.4113875968371335e-16 
6.896657446976475e-16 
-3.2910266386907173e-16 
2.4163074626174437e-16 
2.6303482905807604e-16 
-3.4062349867990587e-16 
6.012262843278394e-16 
-1.1355447915409274e-15 
5.331220406734641e-17 
-5.912385408213678e-17 
-2.81043093102639e-16 
-1.1572628999406511e-16 
7.556517553592016e-16 
1.5759800097825904e-16 
-8.276440592311805e-17 
5.275859759875327e-16 
8.125593636085911e-17 
8.213708309335218e-17 
-1.4778711625769786e-6 
0.0003263685116062143 
0.02745683751086799 
-3.582385265044849e-5 
0.00023609819445293717 
-0.00025257323751406096 
0.15574541186029997 
3.8304780667606836e-7 
-1.2673662152156963e-5 
4.084347603287117e-6 
-6.724925725968155e-6 
-0.00015236736260922166 
-0.0005616897939860796 
-1.6476204385702278e-5 
0.11552966291343464 
-5.284860511364184e-6 
7.595172534123157e-5 
0.0008011931392754948 
1.2711537412721432e-6 
-6.394953975703013e-5 
0.00010917269659312357 
0.03028394383408855 
-5.125550356714859e-6 
-2.6369070790934202e-5 
-0.0005174854590142036 
0.00726802368209533 
6.245320669754327e-5 
8.063903938886129e-6 
0.00011364939792838045 
0.00029391728006311277 
-4.018792484441104e-6 
8.621791010802591e-5 
-0.00018243005540041128 
-3.436618673146531e-7 
1.4520862933106033e-5 
0.0002652435208182833 
0.0003372989629015432 
4.6595777240838175e-5 
-1.8832034308861544e-6 
1.1998055261666341e-5 
0.000473807527090778 
0.0005243439612250057 
0.7466187604805772 
-2.538473014809675e-6 
-8.102012870199574e-5 
0.0031945717845739455 
5.821526834446575e-5 
2.2818595625849434e-5 
8.462398657887181e-5 
0.0005632355713911517 
-6.226158784655209e-7 
-1.1307414557994172e-5 
-0.00014870332817995603 
0.0037305985886122027 
8.120451322553445e-8 
-3.899069168337704e-5 
0.0007415160527959535 
-2.340160971809112e-5 
-2.2116248379041333e-5 
0.00011820216551102629 
0.0014665515861387295 
0.0006800692331239091 
0.016224745632866588 
3.7130678955388004e-6 
-7.988108627924458e-5 
0.0003111835660661601 
8.845120967550215e-5 
8.157727019651995e-7 
-3.619732251112952e-5 
-0.0016520257924134791 
-2.0953550549787543e-5 
0.06355218450834536 
-2.3586968324598627e-5 
9.088177614185493e-7 
-1.2789158057525946e-5 
-6.426344059273418e-5 
0.0014081714918214052 
1.8003658050836092e-5 
7.074515824144814e-6 
-1.297146008649011e-5 
-0.00041397019123797635 
0.0004730125283349012 
0.29156987272682944 
2.361517366956643e-7 
9.837611124730397e-5 
0.0017949220948193217 
-1.4148240870341085e-6 
2.3052792729484265e-5 
0.0001406965170418699 
-0.000281296738995991 
-5.769871899456839e-7 
-5.692356974056416e-5 
0.00017223806902436667 
0.0007398133806302678 
0.18830534514996944 
-8.861618674634237e-6 
5.868734244710486e-5 
0.0017251807831686447 
2.5703122072901657e-5 
0.0007909617243781092 
-1.178585270602257e-6 
2.2465335014685653e-5 
-4.7226042641098905e-8 
1.1751074550509928e-5 
0.00028331306414001447 
-0.00029602500048658565 
-1.4943416810153128e-5 
-0.00017015965141278723 
0.005398083779725181 
2.1738753592139518e-6 
-1.4832922249763967e-5 
8.565758695749682e-5 
-0.0022313800119754023 
0.00019898758107822996 
0.017440191020512596 
-5.2152608956218535e-6 
2.5341280023674326e-5 
0.019307456716021104 
0.0008039223669892039 
0.10590527273205969 
-1.2121084977214735e-5 
-9.319921485848985e-5 
0.002089911806833314 
1.5003568874164768e-6 
6.970587694017567e-6 
0.0003888474548775729 
-2.7426228814777894e-6 
-5.389027075019569e-6 
-0.00026411781875734943 
0.02781295657438117 
9.157246968709143e-7 
-5.9849769096289815e-6 
0.0018017740736459224 
1.4987112310798487e-6 
-4.838401178779814e-5 
5.693520081393362e-5 
0.0012544766140024635 
-7.112571215573745e-6 
1.810306853695022e-6 
6.432839147573425e-5 
-0.0003022907848172767 
0.2999822864436046 
-7.274005485723869e-6 
3.8480950982109376e-5 
-0.00012588763723686208 
-0.00015559757100860517 
-6.901609250355156e-5 
4.451964648324548e-6 
-4.1733091587491465e-5 
0.0002698891373035092 
-7.453491093814936e-8 
-3.0482719369606852e-6 
-3.257348149963257e-5 
0.0009620438406018331 
-9.696781203665038e-8 
8.9035298352322e-6 
0.0001948803304332083 
5.135807471516806e-5 
-1.6261862119962338e-6 
2.623685658874767e-6 
0.0003796625806727906 
0.0012994811817231982 
-8.65205468787417e-7 
-1.1023701921926034e-5 
4.7695558360616535e-5 
-0.0007571448065761149 
1.299337644259596e-6 
-2.404177679589234e-5 
0.00013136073698617813 
0.00022701704232812414 
0.0023701254504638063 
3.2747037635223173e-6 
-7.527164050946085e-5 
-0.001072058628086778 
6.095134582287055e-8 
7.33361171364478e-5 
-0.00037055994177895307 
0.5704998713541644 
2.80662221855735e-6 
4.0458708732886416e-5 
4.0913143098020324e-5 
0.5800447750557838 
1.418546889686109e-6 
3.537403743267885e-5 
-8.437176409925658e-7 
2.2329725544322656e-5 
-6.775017663573212e-5 
0.00021351904844197584 
0.000388366789624429 
1.2603652417611305e-7 
8.309204819764566e-6 
-7.489679646241655e-5 
0.27254426362941764 
-1.3622431002675497e-6 
-3.192693039756205e-5 
-0.0006964305067467289 
-0.0059762676366312975 
0.0023735507144031086 
-2.681127053679085e-5 
6.432478873282085e-5 
0.0023415188356203224 
-1.1308672588843169e-6 
7.2271540562411065e-6 
-2.264414735291229e-5 
0.0053486113734546314 
-1.4626123576030991e-6 
5.7191411651639854e-5 
-0.00191293725799535 
-0.0002436061529596274 
6.855004191137499e-5 
1.0989588028307805e-5 
-1.7269207300751386e-6 
2.132349340787381e-6 
-1.4478455868516898e-6 
4.9014484809491945e-5 
-0.0003675580378642177 
-0.00014047013272949695 
-0.002950842437491802 
0.006561600334528556 
-5.553215919080532e-6 
-1.048474419762278e-5 
-0.00022717225574481602 
-1.8112455139920695e-5 
-4.312284919425866e-6 
-0.00012741576128049608 
0.004156266214775607 
-4.4020994885713165e-6 
6.39427189699254e-5 
0.00026976563578055005 
-0.000678249127622682 
-6.698694368994799e-6 
-4.3666989093937245e-5 
0.00023868040957998837 
-9.130817399728441e-5 
3.392313989909932e-5 
7.00475000348176e-6 
-8.195964346693057e-5 
0.050235127820665845 
1.6634465328836138e-6 
-0.00011996705735760937 
-7.152429004484924e-5 
0.28156412169213346 
7.463285746047459e-6 
-0.0001871088650956492 
-0.0001470449300880895 
-1.10605516954692e-6 
3.5261854741257673e-6 
0.00022784387968012628 
3.018782308947908e-5 
0.000475915999587027 
5.211231701505112e-6 
4.738959373600877e-6 
-7.127810818524841e-6 
1.1743614010320685e-5 
-2.0282957134948785e-5 
0.0006983233678890007 
-0.00016909063208626532 
0.0008222762399952962 
2.756611571416359e-6 
-6.090790978092642e-5 
-6.779675579113266e-7 
-3.556611558033459e-5 
-0.00021761191126438496 
-0.00033070334391978513 
-4.792618526753427e-5 
-0.000194926293867223 
0.0005559822647300975 
1.57128162798978e-7 
-6.169784883066541e-6 
8.463461491961747e-5 
-1.1340244688982101e-6 
0.00984118385854722 
-9.907813834564398e-6 
6.617697779108494e-7 
0.0001714670003262629 
0.001287168612646147 
3.8054869635217585e-7 
-6.065866190384306e-6 
8.085003012471903e-5 
0.002917154024448729 
0.005577104706957931 
0.0008641005597810777 
-1.1719575280724917e-5 
0.0001461852407251035 
0.0015215044007378074 
8.88723401022409e-5 
0.00010875805306625352 
0.000659206219938344 
7.702403129340301e-7 
8.908502391413134e-6 
0.00010354592895775866 
-8.583549461622226e-7 
3.6759174716694554e-5 
0.0001253867264953448 
-0.00014873587322777318 
-4.101236971632667e-6 
-1.3307052611137023e-5 
-2.1934566415548623e-5 
0.0003176904925869488 
2.8222064067988638e-8 
-9.939583363447376e-6 
-0.00010663819093751682 
0.5297250054293693 
-7.749529975405295e-6 
-3.8737962296441e-5 
-0.0002084983423864644 
0.05006696232324956 
0.0014927461220425298 
0.08534604146555923 
-2.739955409765311e-6 
9.265948836232381e-6 
0.000279086877845033 
-8.674093867618509e-5 
0.17853786334860194 
5.206803574973598e-8 
4.316235631284483e-5 
-0.00037279407228522015 
1.6726197215157384e-5 
1.451197913419511e-5 
-6.52635912935147e-5 
0.014096158278838278 
0.14199784412313576 
0.0012953856898122445 
4.931585669142822e-6 
-3.0956676731590314e-5 
-0.0001556404073087072 
-0.0003784507347359086 
3.2376676545085553e-7 
-1.0467514841403816e-5 
-2.1706003469116677e-6 
0.0006163564784640029 
0.00014858104808369827 
0.004611412200577969 
-1.3639238875055428e-7 
-3.2602841452278715e-5 
-0.00026096400079337733 
4.650719970329974e-6 
1.8957080614526665e-6 
-0.00016517665530435546 
0.048754466706065445 
-5.967783342161191e-7 
4.226377295632516e-5 
0.00014694797833968878 
0.0006170475856927234 
0.053931287363331235 
-3.87168284034346e-6 
-3.058632008469426e-5 
0.002201827927394167 
2.2968070682101994e-5 
0.06351601748709562 
-3.4312120675391747e-6 
-1.885378200618076e-5 
6.478414068945823e-7 
-3.2238602044837285e-6 
0.0005741431384980424 
-0.001751027001116224 
6.048034540526959e-7 
-1.756502354928201e-5 
0.00012766728007367683 
-0.00024586986539491574 
-7.864031400741246e-8 
-4.514089261483393e-6 
-0.00011514477535811518 
0.0002828954516133522 
0.00020710149051286712 
3.1856812342720278e-6 
-1.3354842830446661e-5 
-8.291522124803557e-7 
5.595429273905124e-6 
8.914335718362587e-5 
0.0004570381390112687 
-8.630663538220069e-7 
8.616047703770399e-7 
1.4975618425111239e-5 
0.00018841788834052364 
0.00019153780461458148 
0.019372178646807143 
-1.836611270816436e-6 
-6.478997568391581e-5 
-0.0010174453399798297 
4.000583052271888e-6 
1.88874317754412e-5 
5.098750194193732e-5 
-0.00014796433503711358 
7.027622210738113e-5 
0.2340637350177654 
-1.7912095566124334e-6 
3.12753376146925e-5 
-0.0002539391299596313 
0.00015850767671704617 
3.921875120273159e-6 
-1.9860455346955453e-5 
0.0006756804077607427 
0.0024476638707382208 
0.04514381150245256 
-6.3105767667769714e-6 
-0.00019301973319225667 
-2.2102223369463668e-6 
-2.3469805665578755e-5 
-0.00026883847096074477 
-0.00044504678364275084 
1.1220373514506424e-6 
-0.0011675424049846235 
0.5493097011961048 
-1.3363093362280772e-5 
0.0001232015589015329 
0.000529838485336524 
-2.7645667409792377e-6 
4.555895731962543e-5 
0.00044423854915480937 
0.00023635797888617972 
-1.7069278279408352e-5 
0.0001555123796528888 
0.000947075516133089 
-1.373580528733178e-5 
0.00034738970775851876 
0.000504159690622702 
2.1728275642225492e-6 
9.78129259653888e-5 
6.809321911764417e-5 
-2.5680296176450178e-5 
0.0011937481908228299 
1.8886957573330995e-6 
-2.0502174475234805e-5 
-0.00029299470619717374 
0.001012839952902754 
-1.0076241736079635e-5 
-5.774296146658339e-5 
0.004223792321596767 
2.6906177095630576e-5 
-3.5191418638520235e-5 
0.00013564212120912504 
-1.5267448326373382e-6 
1.8491728543788374e-5 
-6.192272822230985e-5 
-0.0011337949096681403 
0.00016920427037314843 
-7.831154494360905e-7 
-2.682668649719879e-5 
-0.00023100132876851577 
0.0013594546698167244 
-5.416473009025339e-6 
-1.9355717610144827e-6 
3.96919812726212e-5 
-0.001570722795053277 
-1.1997999360154909e-5 
5.696486183043372e-6 
-7.451905109298624e-5 
-5.870467853819734e-6 
-8.636276371829718e-5 
0.00014129830735796434 
-4.197205480769496e-6 
1.3997272692915905e-5 
0.00019549025196428555 
0.00011029294867963537 
-5.445578431765391e-7 
1.1017649081455427e-5 
1.0006770361434854e-5 
-0.0014112541773412817 
0.3368575589998887 
7.773761010721699e-6 
-0.0001190905036389771 
0.0003836133544644558 
-1.4444183484089144e-6 
-3.3431108884953774e-6 
0.0002596563591736373 
0.023079776796252005 
0.0004647018158746844 
1.0597135751340131e-7 
-2.231081372380828e-5 
-5.723693888491078e-6 
0.07225612348131155 
0.000527680265741019 
8.118776788739188e-7 
-5.321831968620592e-6 
5.929728088508831e-5 
0.13426019816234624 
-4.501888758607544e-6 
-0.00013747432955270913 
0.0010213034332317268 
-0.0008602386951827035 
5.266438136961857e-7 
3.241401094961327e-6 
3.0835678516064744e-5 
-0.0005242759973511746 
0.005143325610646347 
3.374866599805903e-5 
0.023096247114167304 
0.004954276440569625 
0.016619634910111633 
-9.620682631636211e-6 
1.2085217193071383e-5 
1.0040627474443132e-5 
2.3476748317389777e-5 
1.7795709096697577e-5 
-0.00017366869860548323 
0.05035691197195457 
0.019289844144053662 
0.023731870167462484 
-7.512672755781906e-6 
-1.6122695684115246e-7 
-1.5794848263270974e-5 
2.709616419067515e-5 
-7.396825000433483e-5 
2.0086269707411756e-5 
-0.00046142591113996324 
0.00032532019754168785 
-0.00010604093464916703 
-0.0013774299553219094 
0.0029012307136514603 
6.222897401447097e-5 
-1.2051554575578706e-5 
0.06541840358361184 
0.015152909664120988 
-2.2736386507276336e-5 
3.7093343301305513e-5 
-0.00012104172110060946 
1.394579840900098e-5 
0.01820693678821652 
-0.008209185097103985 
-9.758105246681083e-6 
9.193572937792102e-6 
9.720117799808308e-6 
-8.566337663072537e-6 
-3.304870971102106e-5 
3.373548693157506e-5 
3.765137618319674e-5 
-6.289921356847228e-5 
0.00016422363251873435 
0.00039377975714277244 
3.9554773534936125e-5 
0.0007033568428724648 
-0.0003270209191217002 
0.0011075059475819016 
-0.0005265062557467975 
8.813506670937721e-9 
-4.936707408789218e-7 
8.555389878981571e-7 
-1.391435093075952e-5 
2.3890873996046322e-5 
-8.627760405766232e-6 
-5.039681905067929e-5 
-3.542508404708732e-5 
-2.0557905996999143e-5 
-0.0001648913680982623 
2.31941147692369e-5 
2.2652542521362568e-7 
-2.808327296580332e-7 
1.1568750163208292e-5 
-3.4083282105607207e-6 
9.60267624599084e-5 
5.0669348283183996e-5 
1.0636979525137224e-6 
0.0002611323681156854 
7.531276975399663e-7 
-6.609142294950036e-7 
-2.1270507860406244e-5 
1.2344512589162175e-5 
1.1902840192970826e-5 
0.00011425547336287235 
0.00033015040314400643 
-0.0001487280610245826 
0.00010298195525729293 
0.06819714898917177 
0.0372425314171781 
0.07676551504942256 
7.417937463381424e-7 
1.9069068321753988e-6 
-2.6491320102934533e-6 
-1.0454015661138654e-5 
1.4673959646489832e-6 
1.4260665449157441e-5 
-4.4537310297331534e-7 
8.390973338595641e-7 
5.264470630055813e-8 
2.8846642406411816e-5 
-3.580321439061743e-5 
-2.8717610475222827e-6 
0.00015002660495404534 
-0.00013224288981915477 
1.0736209085200237e-5 
4.3920130625873385e-5 
0.0006128143432002068 
-0.0011361976631629204 
-7.915856955255299e-6 
-1.4304168056927318e-7 
-1.2807050950129847e-5 
-8.555804815833074e-6 
1.1025225955077286e-5 
-4.800792387038196e-6 
1.4769027601806034e-5 
3.476544368062006e-5 
-8.814213542639665e-6 
0.00018374781063946314 
-0.00025386098698470594 
2.743903112066999e-6 
-0.00034667368678903247 
5.141306859595784e-7 
-4.051183913253834e-5 
-1.8983167147705346e-5 
-8.44996463131294e-6 
5.6745452632499035e-6 
9.851299743250646e-5 
9.186260404132222e-5 
6.959260434890444e-5 
2.6471289083930813e-5 
-9.125722068293646e-7 
-8.564580603320916e-6 
-7.742166117926327e-5 
8.659160378886398e-6 
-0.0005959165810734279 
0.0005820719646847561 
-0.0004178997045958412 
0.0006997758778352924 
-0.0002220347180660374 
-0.0002832834221094685 
0.000336153636838832 
-3.2127107914700877e-6 
-6.129454391377092e-7 
-5.258939893946516e-6 
-1.3489289240863625e-5 
-7.513005718433862e-5 
-1.073159344379201e-5 
8.349283175765249e-5 
-0.00011640134797754595 
-8.542939976179448e-7 
7.662568170604994e-7 
1.9779640666141173e-5 
-2.005855679039339e-5 
0.00014774376834845443 
-9.921364293465572e-5 
-0.00011765558510128644 
-2.028424431355756e-5 
0.013503660785559498 
0.00893572397580243 
1.6094908402791516e-6 
-2.8784766762195524e-6 
2.4142360411496925e-5 
1.6684088621602198e-5 
0.0015267500161687579 
-0.0004625670869403572 
-0.0016348580036958933 
-9.010931361228354e-6 
2.442171576519152e-5 
6.741104197155015e-5 
8.590267238271282e-6 
3.928502169124223e-6 
-7.920419549164374e-6 
5.412483816194163e-5 
-1.1508046991679188e-5 
-4.772973257002682e-5 
-3.630338927201036e-5 
1.1840547656842647e-5 
0.00019948021859061778 
0.0005754765880735501 
3.613402250899134e-7 
-2.8871495728384067e-7 
3.498481904599168e-5 
-5.378264428394281e-6 
0.00044327532118252884 
-0.00024348282942404762 
0.00044506297863362664 
0.0006243479681495352 
0.00039621639054112485 
5.440934174947611e-6 
1.4854597888498594e-7 
-6.08488898016201e-6 
-5.5619241945870494e-5 
-6.824874357212853e-5 
0.0001495419556277387 
-0.0003986122247979452 
0.00036700027006570404 
-0.00017848151910777882 
-3.702842960893655e-6 
2.5334092776512085e-6 
-1.8734046879134216e-6 
1.3916951387732728e-5 
-8.389646921681465e-6 
-6.757540269450704e-6 
2.7334302485896804e-5 
-2.406740921419023e-5 
0.00012051217550391076 
0.00044418826166007765 
-0.00044244665738346427 
1.493801419371931e-5 
0.000330876466618999 
-0.0007084621611348977 
-7.949884097109904e-6 
1.6404644154959344e-5 
-3.601514897501481e-6 
-4.123539670773504e-6 
2.5644845131128773e-5 
-6.272394494656468e-5 
0.00028620387361325916 
0.0003928018243739579 
0.00022333889012692915 
-0.0006621828008232321 
-7.668794649216009e-7 
1.0940358540396863e-6 
-2.5023563865617377e-7 