# vtk DataFile Version 3.0 
Unstructured Grid 
ASCII 
DATASET UNSTRUCTURED_GRID
POINTS 2173 float 
-0.5 -0.5 0  
0.5 -0.5 0  
0.5 0.5 0  
-0.5 0.5 0  
-0.475 -0.5 0  
-0.45 -0.5 0  
-0.425 -0.5 0  
-0.4 -0.5 0  
-0.375 -0.5 0  
-0.35 -0.5 0  
-0.325 -0.5 0  
-0.3 -0.5 0  
-0.275 -0.5 0  
-0.25 -0.5 0  
-0.225 -0.5 0  
-0.2 -0.5 0  
-0.175 -0.5 0  
-0.15 -0.5 0  
-0.125 -0.5 0  
-0.1 -0.5 0  
-0.075 -0.5 0  
-0.05 -0.5 0  
-0.025 -0.5 0  
-1.3761214e-12 -0.5 0  
0.025 -0.5 0  
0.05 -0.5 0  
0.075 -0.5 0  
0.1 -0.5 0  
0.125 -0.5 0  
0.15 -0.5 0  
0.175 -0.5 0  
0.2 -0.5 0  
0.225 -0.5 0  
0.25 -0.5 0  
0.275 -0.5 0  
0.3 -0.5 0  
0.325 -0.5 0  
0.35 -0.5 0  
0.375 -0.5 0  
0.4 -0.5 0  
0.425 -0.5 0  
0.45 -0.5 0  
0.475 -0.5 0  
0.5 -0.475 0  
0.5 -0.45 0  
0.5 -0.425 0  
0.5 -0.4 0  
0.5 -0.375 0  
0.5 -0.35 0  
0.5 -0.325 0  
0.5 -0.3 0  
0.5 -0.275 0  
0.5 -0.25 0  
0.5 -0.225 0  
0.5 -0.2 0  
0.5 -0.175 0  
0.5 -0.15 0  
0.5 -0.125 0  
0.5 -0.1 0  
0.5 -0.075 0  
0.5 -0.05 0  
0.5 -0.025 0  
0.5 -1.3761214e-12 0  
0.5 0.025 0  
0.5 0.05 0  
0.5 0.075 0  
0.5 0.1 0  
0.5 0.125 0  
0.5 0.15 0  
0.5 0.175 0  
0.5 0.2 0  
0.5 0.225 0  
0.5 0.25 0  
0.5 0.275 0  
0.5 0.3 0  
0.5 0.325 0  
0.5 0.35 0  
0.5 0.375 0  
0.5 0.4 0  
0.5 0.425 0  
0.5 0.45 0  
0.5 0.475 0  
0.475 0.5 0  
0.45 0.5 0  
0.425 0.5 0  
0.4 0.5 0  
0.375 0.5 0  
0.35 0.5 0  
0.325 0.5 0  
0.3 0.5 0  
0.275 0.5 0  
0.25 0.5 0  
0.225 0.5 0  
0.2 0.5 0  
0.175 0.5 0  
0.15 0.5 0  
0.125 0.5 0  
0.1 0.5 0  
0.075 0.5 0  
0.05 0.5 0  
0.025 0.5 0  
1.3761214e-12 0.5 0  
-0.025 0.5 0  
-0.05 0.5 0  
-0.075 0.5 0  
-0.1 0.5 0  
-0.125 0.5 0  
-0.15 0.5 0  
-0.175 0.5 0  
-0.2 0.5 0  
-0.225 0.5 0  
-0.25 0.5 0  
-0.275 0.5 0  
-0.3 0.5 0  
-0.325 0.5 0  
-0.35 0.5 0  
-0.375 0.5 0  
-0.4 0.5 0  
-0.425 0.5 0  
-0.45 0.5 0  
-0.475 0.5 0  
-0.5 0.475 0  
-0.5 0.45 0  
-0.5 0.425 0  
-0.5 0.4 0  
-0.5 0.375 0  
-0.5 0.35 0  
-0.5 0.325 0  
-0.5 0.3 0  
-0.5 0.275 0  
-0.5 0.25 0  
-0.5 0.225 0  
-0.5 0.2 0  
-0.5 0.175 0  
-0.5 0.15 0  
-0.5 0.125 0  
-0.5 0.1 0  
-0.5 0.075 0  
-0.5 0.05 0  
-0.5 0.025 0  
-0.5 1.3761214e-12 0  
-0.5 -0.025 0  
-0.5 -0.05 0  
-0.5 -0.075 0  
-0.5 -0.1 0  
-0.5 -0.125 0  
-0.5 -0.15 0  
-0.5 -0.175 0  
-0.5 -0.2 0  
-0.5 -0.225 0  
-0.5 -0.25 0  
-0.5 -0.275 0  
-0.5 -0.3 0  
-0.5 -0.325 0  
-0.5 -0.35 0  
-0.5 -0.375 0  
-0.5 -0.4 0  
-0.5 -0.425 0  
-0.5 -0.45 0  
-0.5 -0.475 0  
-0.002115384 -0.00023065208 0  
-0.20714286 -0.20714286 0  
0.20714286 -0.20714286 0  
0.20714286 0.20714286 0  
-0.20714286 0.20714286 0  
-0.28155318 -0.0017231192 0  
0.0017231192 -0.28155318 0  
0.28155318 0.0017231192 0  
-0.0017231192 0.28155318 0  
0.3319978 -0.33098683 0  
0.33098683 0.3319978 0  
-0.3319978 0.33098683 0  
-0.33098683 -0.3319978 0  
-0.14015679 -0.06698606 0  
0.06698606 -0.14015679 0  
0.14015679 0.06698606 0  
-0.06698606 0.14015679 0  
-0.1387125 -0.34573975 0  
0.34573975 -0.1387125 0  
0.1387125 0.34573975 0  
-0.34573975 0.1387125 0  
0.14046866 -0.34602854 0  
0.34602854 0.14046866 0  
-0.14046866 0.34602854 0  
-0.34602854 -0.14046866 0  
-0.05869875 -0.16617337 0  
0.18217777 -0.061504476 0  
0.062312964 0.18362015 0  
-0.18362015 0.062312964 0  
-0.034321424 -0.38563195 0  
0.38563195 -0.034321424 0  
0.034321424 0.38563195 0  
-0.38563195 0.034321424 0  
0.39586002 -0.2428538 0  
0.2428538 0.39586002 0  
-0.39586002 0.2428538 0  
-0.2428538 -0.39586002 0  
0.23688246 -0.38952246 0  
0.38952246 0.23688246 0  
-0.23688246 0.38952246 0  
-0.38952246 -0.23688246 0  
-0.24287231 -0.09948847 0  
0.09948847 -0.24287231 0  
0.24287231 0.09948847 0  
-0.09948847 0.24287231 0  
-0.11560815 -0.24300627 0  
0.24300627 -0.11560815 0  
0.11560815 0.24300627 0  
-0.24300627 0.11560815 0  
-0.40192315 -0.4008276 0  
0.4008276 -0.40192315 0  
0.40192315 0.4008276 0  
-0.4008276 0.40192315 0  
0.06409326 -0.40289903 0  
0.40289903 0.06409326 0  
-0.06409326 0.40289903 0  
-0.40289903 -0.06409326 0  
0.2962961 -0.23982804 0  
0.23982804 0.2962961 0  
-0.2962961 0.23982804 0  
-0.23982804 -0.2962961 0  
-0.28087237 -0.21196799 0  
0.21196799 -0.28087237 0  
0.28087237 0.21196799 0  
-0.21196799 0.28087237 0  
-0.0901279 0.007867504 0  
-0.05002927 -0.07494272 0  
0.0873353 -0.009871756 0  
0.0071518295 0.09216282 0  
-0.14120433 -0.1484696 0  
-0.14581114 0.13960092 0  
0.1458264 -0.14505939 0  
0.13960092 0.14581114 0  
0.41838804 -0.3182741 0  
0.3182741 0.41838804 0  
-0.41838804 0.3182741 0  
-0.3182741 -0.41838804 0  
0.32118136 -0.41712493 0  
0.41712493 0.32118136 0  
-0.32118136 0.41712493 0  
-0.41712493 -0.32118136 0  
-0.19707234 -0.014843048 0  
0.018050108 -0.20183705 0  
0.19707234 0.014843048 0  
-0.014843048 0.19707234 0  
-0.10938372 -0.41847488 0  
0.41847488 -0.10938372 0  
0.10938372 0.41847488 0  
-0.41847488 0.10938372 0  
0.15773043 -0.4267032 0  
0.4267032 0.15773043 0  
-0.15773043 0.4267032 0  
-0.4267032 -0.15773043 0  
-0.3204562 -0.07174808 0  
0.07174808 -0.3204562 0  
0.3204562 0.07174808 0  
-0.07174808 0.3204562 0  
0.02801032 -0.07269879 0  
-0.31817523 0.069836795 0  
-0.069836795 -0.31817523 0  
0.31817523 -0.069836795 0  
0.069836795 0.31817523 0  
0.43106207 -0.17757268 0  
0.17757268 0.43106207 0  
-0.43106207 0.17757268 0  
-0.17757268 -0.43106207 0  
0.0703783 0.071201205 0  
-0.051593844 0.064346604 0  
0.099701226 -0.08333426 0  
0.2863281 -0.17248559 0  
0.17248559 0.2863281 0  
-0.2863281 0.17248559 0  
-0.17248559 -0.2863281 0  
-0.2341888 0.04979648 0  
-0.049194112 -0.231281 0  
0.23358595 -0.04946041 0  
0.04979648 0.2341888 0  
-0.009939441 -0.13691185 0  
-0.26560438 -0.17864102 0  
0.17864102 -0.26560438 0  
0.26560438 0.17864102 0  
-0.17864102 0.26560438 0  
0.013302229 -0.43510666 0  
0.43510666 0.013302229 0  
-0.013302229 0.43510666 0  
-0.43510666 -0.013302229 0  
0.09432827 0.114700764 0  
-0.11539384 0.093188405 0  
-0.3413634 -0.005100272 0  
0.005100272 -0.3413634 0  
0.3413634 0.005100272 0  
-0.005100272 0.3413634 0  
-0.19817708 -0.3508856 0  
0.3508856 -0.19817708 0  
0.19817708 0.3508856 0  
-0.3508856 0.19817708 0  
-0.34100306 -0.27216324 0  
0.27216324 -0.34100306 0  
0.34100306 0.27216324 0  
-0.27216324 0.34100306 0  
-0.20269383 -0.14403741 0  
0.14393912 -0.2028372 0  
0.2026342 0.14393856 0  
-0.14393856 0.2026342 0  
-0.1030633 -0.10524017 0  
-0.4394695 -0.104853734 0  
0.104853734 -0.4394695 0  
0.4394695 0.104853734 0  
-0.104853734 0.4394695 0  
-0.44156647 -0.44156647 0  
0.44156647 -0.44156647 0  
0.44156647 0.44156647 0  
-0.44156647 0.44156647 0  
-0.2683254 -0.44465622 0  
0.44465622 -0.2683254 0  
0.2683254 0.44465622 0  
-0.44465622 0.2683254 0  
0.2654342 -0.4435478 0  
0.4435478 0.2654342 0  
-0.2654342 0.4435478 0  
-0.4435478 -0.2654342 0  
-0.27373606 -0.34534052 0  
0.34534052 -0.27373606 0  
0.27373606 0.34534052 0  
-0.34534052 0.27373606 0  
-0.05307205 -0.4481981 0  
0.4481981 -0.05307205 0  
0.05307205 0.4481981 0  
-0.4481981 0.05307205 0  
-0.35614902 -0.19390328 0  
0.19390328 -0.35614902 0  
0.35614902 0.19390328 0  
-0.19390328 0.35614902 0  
-0.14022674 -0.012452113 0  
0.14171903 0.011271359 0  
-0.01125192 0.14089845 0  
-0.19556868 -0.06932378 0  
0.070511825 -0.19668652 0  
0.19556868 0.06932378 0  
-0.06932378 0.19556868 0  
-0.24951252 -0.039742906 0  
0.04037078 -0.2503529 0  
0.24951252 0.039742906 0  
-0.039742906 0.24951252 0  
0.44100407 -0.36164257 0  
0.36164257 0.44100407 0  
-0.44100407 0.36164257 0  
-0.36164257 -0.44100407 0  
-0.4451273 -0.36589316 0  
0.36589316 -0.4451273 0  
0.4451273 0.36589316 0  
-0.36589316 0.4451273 0  
0.1121834 -0.30242515 0  
0.30242515 0.1121834 0  
-0.1121834 0.30242515 0  
-0.30242515 -0.1121834 0  
-0.115146436 -0.19087775 0  
0.19190264 -0.11309679 0  
0.11520548 0.19263776 0  
-0.19263776 0.11520548 0  
-0.08287991 -0.37025127 0  
0.37025127 -0.08287991 0  
0.08287991 0.37025127 0  
-0.37025127 0.08287991 0  
0.23791528 -0.24381089 0  
0.24381089 0.23791528 0  
-0.23791528 0.24381089 0  
-0.24381089 -0.23791528 0  
-0.44626984 -0.21174923 0  
0.21174923 -0.44626984 0  
0.44626984 0.21174923 0  
-0.21174923 0.44626984 0  
0.35174853 -0.37705234 0  
0.37705234 0.35174853 0  
-0.35174853 0.37705234 0  
-0.37705234 -0.35174853 0  
-0.048605647 -0.023262763 0  
-0.1551113 -0.21381997 0  
0.21381997 -0.1551113 0  
0.1551113 0.21381997 0  
-0.21381997 0.1551113 0  
-0.29403278 -0.30027482 0  
0.30027482 -0.29403278 0  
0.29403278 0.30027482 0  
-0.30027482 0.29403278 0  
0.12173745 -0.390654 0  
0.390654 0.12173745 0  
-0.12173745 0.390654 0  
-0.390654 -0.12173745 0  
-0.12236246 -0.2979882 0  
0.2979882 -0.12236246 0  
0.12236246 0.2979882 0  
-0.2979882 0.12236246 0  
-0.0945969 -0.046371013 0  
0.035276897 -0.027358124 0  
-0.0076714605 0.051946 0  
-0.30809116 -0.17165439 0  
0.17165439 -0.30809116 0  
0.30809116 0.17165439 0  
-0.17165439 0.30809116 0  
-0.16592422 -0.10879113 0  
0.10700909 -0.1687818 0  
0.16864619 0.10664837 0  
-0.10664837 0.16864619 0  
-0.16784625 -0.38069874 0  
0.38069874 -0.16784625 0  
0.16784625 0.38069874 0  
-0.38069874 0.16784625 0  
-0.4563872 -0.05993889 0  
0.05993889 -0.4563872 0  
0.4563872 0.05993889 0  
-0.05993889 0.4563872 0  
0.31103167 -0.37412483 0  
0.37412483 0.31103167 0  
-0.31103167 0.37412483 0  
-0.37412483 -0.31103167 0  
-0.3909646 -0.012754724 0  
0.012754724 -0.3909646 0  
0.3909646 0.012754724 0  
-0.012754724 0.3909646 0  
0.44915667 -0.21679194 0  
0.21679194 0.44915667 0  
-0.44915667 0.21679194 0  
-0.21679194 -0.44915667 0  
0.045831423 0.12033131 0  
-0.12662303 0.045442794 0  
-0.3107799 -0.37355793 0  
0.37355793 -0.3107799 0  
0.3107799 0.37355793 0  
-0.37355793 0.3107799 0  
0.04152367 0.021693805 0  
-0.08040017 -0.2675595 0  
0.26794365 -0.08044455 0  
0.080500565 0.2680441 0  
-0.2680441 0.080500565 0  
-0.13753757 -0.45578164 0  
0.45578164 -0.13753757 0  
0.13753757 0.45578164 0  
-0.45578164 0.13753757 0  
-0.05507968 -0.12135967 0  
0.14172421 -0.09428923 0  
0.2571752 -0.19664502 0  
[...]
POINT_DATA 2173 
SCALARS T float 
LOOKUP_TABLE default 
-5.491202011378059e-19 
7.927068608043073e-18 
4.834882623790766e-21 
-5.338514296684055e-20 
1.490385146076001e-18 
1.3570700321165441e-17 
-8.180731579664936e-17 
6.703693225988161e-17 
9.778936629871216e-17 
1.0686057766879524e-16 
-3.95484514805879e-17 
-1.4629597833655412e-16 
3.210726813157154e-17 
-1.4279724589998133e-16 
1.2726788984534624e-16 
-3.4889020924397663e-17 
1.7708635105516812e-16 
7.506337474318555e-17 
-1.0265372529182587e-17 
5.137019776173117e-17 
-1.0465101016164536e-16 
5.5245421713262624e-17 
2.8875644829710355e-17 
7.038264638016744e-17 
-2.0579404417133739e-16 
4.197208955234828e-16 
-6.350013941619423e-16 
4.618820453564535e-16 
1.7717074781425013e-16 
2.6377511277118066e-16 
-2.747225773520188e-16 
5.465403949865587e-16 
-3.5959153626416416e-16 
5.653825761256327e-18 
-6.939168807350515e-17 
1.2550658352578083e-15 
4.801851543562815e-17 
1.7751063053427556e-16 
-8.440018383015281e-17 
-9.171944880610026e-17 
-2.643206568117113e-16 
-1.3050140528296235e-16 
-1.8287850436851588e-16 
1.6833200785828218e-16 
-5.057468483490143e-17 
1.4135614234004243e-16 
-2.9144612514833177e-16 
5.713992278595422e-17 
4.925194628073545e-16 
5.560868459081563e-16 
7.97498270478339e-16 
-2.595165387704505e-16 
7.086318657594375e-16 
-8.461852039727735e-16 
7.550166992147497e-16 
6.745146097689193e-16 
4.900372341169303e-16 
1.275559581560898e-15 
-1.1024513116361783e-15 
7.733419120895765e-16 
1.3561387321196897e-16 
-9.379101288088883e-16 
1.27280732610608e-15 
-1.122428994964935e-15 
9.894889049419158e-16 
-3.3330253287465425e-16 
2.8319216040573446e-16 
4.4988228297734485e-17 
4.3809978775714377e-17 
3.0944638776605776e-17 
-7.415299940452542e-17 
1.1854890667038764e-17 
-9.45264264984537e-17 
-6.037474335968305e-17 
-3.176349669838613e-17 
1.260183510278187e-18 
-1.4629528299824326e-17 
-5.084847637485555e-18 
-1.162841706724524e-18 
-4.373439029884786e-19 
-5.862831525569682e-19 
3.3213886714772717e-19 
-4.076417999295256e-19 
9.8526899935289e-20 
-3.7075881048552523e-20 
2.5433069961588824e-20 
-6.881091624272617e-19 
-1.9139838077112556e-18 
-8.186375810244007e-19 
-4.513124786427783e-18 
5.071472460807675e-19 
1.0783898155527525e-18 
1.7808396360081706e-18 
3.860145943535249e-19 
-3.554379917489795e-19 
9.920301798437405e-19 
7.62070149238092e-19 
8.931763171258306e-19 
6.325622368636974e-19 
-4.578631886830794e-19 
1.3552034328830857e-18 
-2.3761298163938442e-18 
2.6139890257722006e-18 
-2.875243242747425e-18 
1.0657135128320602e-18 
5.810226040257603e-18 
8.684753346113028e-19 
-2.280959319882846e-19 
-4.4955556114884456e-18 
4.164279679116376e-18 
-8.588019099539815e-18 
1.0306797238619507e-17 
-6.431064711692412e-18 
-8.766141343068043e-18 
1.222440153275679e-18 
-1.3368210587761014e-17 
-1.7234903117653776e-17 
-1.731927994960556e-17 
1.4325314449937012e-17 
-8.193279098170672e-18 
-2.8840096069976317e-18 
2.2362564139788728e-18 
8.382699556772774e-18 
-1.5924125968657064e-17 
2.2260963533716298e-17 
1.699964727329777e-17 
2.8140652909579563e-18 
2.5836424703508804e-18 
-9.362157445681741e-18 
9.892003779672066e-18 
-1.5446749497302927e-17 
-6.408508864647666e-18 
2.863786323266357e-18 
1.1351919892863183e-17 
-8.272310441216312e-19 
1.506672518650593e-17 
-2.8621078730310876e-17 
5.304189815054038e-17 
-2.6724810618106058e-17 
-1.7355697758574123e-17 
4.4956833794604046e-18 
2.354396649800277e-19 
-1.6607879997303077e-18 
1.6905081318768193e-17 
-4.570726665450175e-17 
2.4698515005430397e-17 
-5.0235542743956627e-17 
2.1761751505840244e-17 
-3.0462503519927175e-17 
-2.6124915037416553e-17 
4.385459899935859e-17 
-1.6967349445864503e-16 
-6.547303576875488e-17 
-5.1717908428266424e-18 
-2.951816866529306e-17 
-6.69955658182861e-17 
-8.341953151337213e-17 
4.38741684051604e-17 
-3.120515472687079e-17 
-6.900428028951292e-18 
2.355877136038712e-6 
-4.2971915890278264e-5 
0.0004344827106291855 
0.26218958542043685 
-8.587512177581984e-6 
-2.062849400832753e-5 
8.995217635351627e-5 
0.019017422755744716 
-1.1035501433703179e-5 
4.462863833142369e-5 
-3.336667377218392e-5 
-7.315864695322014e-6 
-2.1617724736758904e-5 
-6.220893919866891e-5 
0.0005065329372086069 
0.12923225765857754 
-4.208381893674851e-6 
-7.560416988076423e-5 
-0.0006933491992065058 
-3.52846543485671e-5 
-1.1311667070038302e-5 
-0.00034044733058337905 
0.03054430687316164 
2.4702585138748817e-6 
2.3564085845259175e-5 
8.177257178054677e-5 
0.0018482649302688655 
0.008849702921585335 
-7.733004507885498e-6 
0.00012978719693423736 
-0.000354538764214672 
4.5388543207483176e-7 
2.2638001359280895e-5 
-0.00033409681366827716 
5.975174156011543e-6 
1.2843787756431581e-5 
2.6726154481513784e-5 
8.31061443345281e-5 
-0.0001414885408764988 
6.755400541627756e-6 
8.061265320856502e-7 
-4.19889808975786e-5 
0.0006064870187861536 
0.5120692063490109 
7.922799089945784e-7 
-8.756406246927786e-5 
0.00043003491918007335 
0.019847291962613506 
1.2115182533649234e-6 
-4.62814795406959e-5 
-0.00010840060757685678 
-1.1107344458012907e-5 
-7.157766091306237e-6 
-0.000177490379973627 
0.0017507716535867803 
-3.167775482551914e-6 
-3.8625244072277346e-5 
-0.00023998760086181293 
0.004169717986810797 
-1.457469566952912e-5 
1.0645004803671564e-5 
-6.324579582114355e-6 
6.887862022402062e-7 
0.09441563370756503 
-5.592483174580448e-6 
-2.2186689778625e-5 
-0.0001726093214905254 
0.0016406315408228791 
0.0001369792671160938 
0.0001624767544743339 
-1.589000357812828e-5 
-0.0018353632863825893 
0.2732912907002343 
-0.0006687960920969608 
3.889468091337123e-6 
-3.312874526209766e-6 
-7.847514728699277e-7 
0.0010267762348057819 
-4.4728441906447277e-7 
-3.5101040859574775e-6 
-2.9084924827784895e-5 
-2.049597385250093e-7 
7.838404172838498e-5 
0.06451850810303875 
-1.5739920903651143e-5 
-0.00012917110366930364 
0.0002734558904771969 
8.308023592236721e-7 
1.454017217144328e-5 
-0.0002100114988571643 
0.000455146265832881 
-5.069333908020098e-7 
-1.0875154108455348e-5 
2.2175258515295603e-5 
-0.0001130109120306487 
0.04283863135870358 
3.2905367167110635e-7 
0.00013399537901569075 
2.0466104990544423e-5 
0.00011206159702544066 
0.0008639636397560188 
-5.0043408258080095e-5 
6.068137683974901e-5 
1.2445694983060794e-6 
-5.51789292567755e-6 
-8.922711285193536e-5 
0.009289930592039038 
7.817664052483044e-6 
-8.261039661295076e-5 
-0.0005844541733066575 
0.010497147517886527 
-1.2048331110322581e-5 
-1.7445933513511934e-5 
-2.6393235148987267e-5 
-6.675798741909948e-6 
0.006731247182406126 
0.0010747615430230849 
-0.0001709585966888844 
2.787392270858171e-5 
0.00026208133908611547 
0.28648384212780326 
-1.1695425946125758e-5 
-0.0002253804427250643 
-0.0005096481869862551 
3.301530837877501e-6 
-4.460749783574189e-6 
0.05653234621304525 
-1.3709736454716905e-5 
1.2224908160847466e-5 
-4.7946412938346336e-5 
-0.0010689928994692443 
-1.6503875106861337e-6 
-5.757790657297558e-5 
0.0003386910005732085 
-7.234385664253238e-6 
-1.4601559589206232e-5 
-4.2198794125773005e-5 
-0.0002955972199160773 
0.0005819120261518167 
-1.0027896167409225e-5 
-1.854705908740467e-5 
-0.0013215012066468085 
0.6549361003347677 
-5.2131523496054915e-6 
-6.293658011033875e-5 
-1.608021194050941e-5 
0.0002466817813549372 
0.00029216655112002473 
9.46655764522619e-7 
1.3997267034431983e-5 
-1.1316998426664554e-6 
-1.0755206496392214e-6 
2.1122970516604893e-6 
5.9832525566121655e-5 
-0.000391546414479767 
2.4550395457674127e-6 
-7.709740579656129e-7 
4.408019398527768e-5 
-6.992367992590714e-6 
4.646805780768827e-6 
-5.2952956250286254e-5 
5.231010364120868e-5 
-0.0001690833968424154 
-0.00010365362536990413 
-5.577404876576191e-6 
-0.00011829769360575976 
0.00018597890480002256 
1.3472829187923433e-6 
-2.3313413314127747e-5 
-4.122976449136422e-5 
0.0006438946023351107 
0.006953618490154513 
-3.4689877540955055e-6 
5.4830164429446325e-5 
0.02195725890885923 
-9.746958264118354e-9 
-2.763142579953503e-5 
0.0004386166955773834 
0.34202785560111665 
-1.926294571864749e-6 
3.236223325942424e-5 
6.362948055366671e-7 
0.11919382383449878 
-3.068083014191506e-6 
0.00029485098329346595 
-6.444219570629134e-6 
3.411381619971733e-6 
-7.436753448884685e-6 
1.3018500851484413e-5 
0.0002517320356142323 
-1.3835822369355255e-5 
8.914242262593902e-7 
0.000554696412112333 
0.14932045287224135 
-5.546136048578167e-6 
-2.4561763203772086e-5 
-5.914947386825713e-5 
-0.0008706615169810939 
0.08058106590122247 
-1.2042878108378683e-5 
4.2018533016501545e-5 
3.2502594786718366e-7 
-7.91028834703308e-6 
5.772081545645131e-6 
-0.000967565195366241 
0.08429784256314822 
3.555692380809473e-6 
1.4163127799628446e-5 
-2.3387041918695265e-5 
-0.00011124385050010214 
0.00014561734494320335 
2.669550467188321e-7 
-0.0002255098706478798 
3.787649494190883e-5 
7.616239877095411e-6 
5.5614729444203967e-5 
-1.6347782780797868e-5 
3.320438765222576e-5 
-0.0013530808892244996 
0.138497068617438 
-1.613867346606252e-5 
1.59982248369883e-5 
-7.074454663738472e-5 
0.0008235030681174736 
-1.429816474385359e-6 
0.0005107091621968862 
0.003436244939156221 
2.305352003515438e-6 
1.9537280182554572e-5 
-4.569189583520513e-5 
-0.0009227183836596546 
0.0013857792361335922 
3.3413166409170863e-6 
2.2700134293718676e-5 
6.924724759225477e-5 
3.3593749460340604e-6 
-2.601752697201854e-5 
0.00046347542627967234 
0.09888003358460735 
-7.846667437039868e-6 
2.7819386246530262e-5 
0.00036907213076715635 
0.4384494964116956 
-6.6332915351041766e-6 
-8.378240539658573e-5 
0.0004025353374734796 
-2.259588972167278e-5 
-4.919340021411657e-6 
3.2247238624466233e-6 
-4.4479163264376863e-5 
0.00021729927294732366 
-1.2182568633217808e-6 
0.0004933895715541679 
-0.00010070922283033292 
3.310205732767443e-6 
-1.333743337363772e-5 
-1.5824141233965366e-5 
0.00017280366330413335 
-0.0022892643558272223 
-3.003292532283215e-6 
0.0010208124170871498 
2.82306162821463e-7 
9.098886727932502e-6 
1.8425980592791568e-5 
0.0044386478228869725 
-4.3824058069364034e-5 
3.821177848664318e-5 
-0.00046315514520591395 
-2.9682572156552762e-5 
1.896223568574371e-6 
0.0003976054968843013 
4.573154201629202e-5 
0.0013921800260084422 
0.001378090786014271 
3.75030903738839e-6 
4.598335666540417e-6 
0.00011686237035972186 
-7.860058336945015e-7 
1.8209538452824643e-5 
0.00022897350919079596 
4.756944446075853e-5 
-0.0004561489313179786 
0.04906016003618747 
-2.1627966615717906e-5 
-2.5653039795488492e-5 
0.000505958395976121 
-6.876685970014663e-5 
5.139432561015354e-5 
-0.0005009425391714553 
1.1211520158247024e-5 
8.835751439300779e-6 
4.641057104943932e-6 
-1.9528036298715267e-6 
4.1315510672885376e-6 
1.9030275263652362e-5 
-0.000238936219988967 
-1.7766898905411887e-6 
2.7098745610715358e-6 
7.835442395550598e-5 
0.013878161427467117 
3.824213349102658e-6 
-1.527218911704523e-5 
0.00023630593291466972 
0.15949352868320607 
-4.060643791705758e-7 
2.517676641102266e-6 
-0.00021242918196287327 
0.00024106936789165782 
-4.473201082019368e-5 
0.005277401203008814 
0.00042801062961425 
-4.0532911532948776e-5 
5.603202388575192e-6 
0.00012777171664254567 
0.015961403818958185 
-1.636528998854045e-5 
-1.302204798449277e-5 
-0.00041887258188800846 
0.0001520873087799634 
-6.04025333289109e-6 
0.0008626274398629054 
-0.00012258712920600365 
0.00039508848442465944 
0.004698691736406874 
2.0653075499310037e-6 
3.054375446732653e-5 
0.0001825123765705664 
-0.00024748931560114064 
-1.9197692288221906e-5 
2.269282950007491e-6 
1.2757786680414155e-5 
-9.929871870833989e-6 
-5.0284252986328015e-5 
-0.0010726977400976636 
-7.650816274752089e-6 
9.463351350545394e-7 
-0.0004979256494545092 
6.078281048912932e-7 
-1.5024757784901923e-5 
0.00022931918810099083 
0.0018499874397270306 
-2.8382331983902635e-7 
-2.851766131074028e-6 
3.984115163672755e-6 
0.00038654301675230054 
0.02202888785762385 
-1.903357142042393e-6 
2.1465485163820785e-5 
2.7119589970624474e-6 
0.0016002370930358752 
0.38783365805189907 
9.669209150980181e-5 
-3.390273552774554e-5 
-7.093658347586961e-7 
2.4508783838128723e-6 
4.2160547631031224e-5 
-0.0013355765143154123 
-1.1336224040229236e-5 
-2.2502386170288955e-6 
-0.00011597313841600915 
-0.0006455282748364211 
2.179183881168448e-6 
1.302359586875902e-5 
-3.715819018171838e-5 
-0.0003385102409572534 
-0.0003038329888483924 
-2.6126848054195463e-6 
-0.00014383951619247048 
-3.2983548530340135e-7 
8.092914875715802e-6 
5.3359719506735166e-5 
-0.00018851354314510438 
4.545617826391606e-7 
8.676111619756406e-6 
2.8655244032821548e-5 
1.4624284332471422e-5 
-4.507334373491016e-5 
0.0007324168339307277 
-2.951178928865512e-5 
-8.93337422105506e-6 
0.11776740767876717 
-6.5047762114949325e-6 
0.05413637882271246 
-8.747701731782402e-6 
3.338152797083113e-5 
0.00030140473111345853 
0.02527949971899387 
1.2797839411740065e-6 
-1.5594965857776144e-5 
4.444678182511719e-5 
-0.0013073067528072738 
-7.336587262212531e-7 
0.001225163296863864 
-3.129028733884988e-5 
0.0008998906557155709 
0.2489824052781354 
-9.412071126397614e-6 
0.0008095485727548046 
9.087433047501718e-7 
-5.004450174619027e-6 
-0.00010054186354917264 
0.000661356068603308 
8.885706491421706e-5 
-0.0015550903476307888 
0.598664028596131 
-1.534906398664843e-5 
-0.00021734609681584903 
0.00038765307533585746 
2.4704304176073896e-7 
3.3715786587316136e-6 
0.0011317812187217305 
0.0329536755437673 
-5.983693637870523e-6 
-1.0313202229179692e-5 
0.056419924288321655 
-1.0644432499920313e-5 
-0.0009659808645025162 
0.01479724328560326 
-7.1502043233669265e-6 
2.238577569248719e-6 
2.4158389948292734e-8 
1.0029892061744867e-5 
-0.0016744564450592327 
-2.4618230950358217e-5 
-1.1651172095973984e-5 
-0.0005771989178891502 
0.009260579133970017 
3.780367219738876e-6 
-1.1193502364509559e-5 
0.001233682895191416 
0.01190437985177194 
-1.2710831322079564e-5 
0.0005352522490556898 
1.0126157806606213e-5 
7.4131360617880605e-6 
5.554075483521326e-5 
-2.1955009989823627e-5 
0.0003946458367017291 
9.179034920846959e-7 
-6.732102161281545e-6 
-5.268692249567795e-5 
-6.158394822864122e-6 
0.0006247331207039841 
-8.49440995873566e-6 
4.3944243473277006e-5 
0.00021282958753135255 
0.0023981530275716013 
5.139667801288736e-6 
0.1820218195916618 
2.3596676043224747e-5 
-0.0002899367143777536 
-3.690687522206259e-5 
-1.1831633259283263e-6 
3.24610281551637e-5 
2.553123515056698e-5 
5.192209627105011e-5 
8.817768415728534e-8 
5.881897150552063e-6 
3.6154512494669484e-5 
0.00013964168549951812 
0.45372416264621585 
-1.0811837353537124e-6 
3.0476494396206934e-5 
0.008503871312256665 
0.0005533184217482652 
1.4554759354913269e-5 
-0.0003561576392346606 
4.6689812643250265e-5 
-0.0008662114703162863 
-1.1711831913089335e-7 
8.319087702390422e-6 
0.00016667569320420468 
7.472246948714425e-5 
1.187112935364189e-5 
-1.5540099999884682e-5 
-1.3945201019809867e-6 
-0.00013617080760565484 
0.4756442008467109 
3.8067786126494096e-6 
1.1846677147836128e-5 
8.66287474041805e-5 
0.00021070995924068382 
-1.1863219034759672e-6 
-4.443694674635828e-5 
-7.160179290675168e-5 
-2.9236960983344427e-5 
5.974979771393294e-5 
3.736167031410236e-5 
0.0020445628891173485 
-0.000523449793882181 
0.24977736437351136 
0.11586797329090176 
0.2035578181390419 
2.180115325786718e-6 
1.905027973658374e-5 
-5.0035875948839606e-6 
0.00010293696921666525 
-4.2075025788030416e-5 
-9.531110221029434e-5 
0.004892964252091413 
0.0020332790902071857 
-0.0014159213395458633 
0.0006559113560015311 
0.002331142414156823 
0.0033981827787176485 
5.159556372449003e-5 
-6.68771483253284e-5 
1.2896359972164925e-5 
-5.707012374200476e-6 
-0.00011576778392811447 
7.421603581246149e-6 
-6.7432296587871315e-6 
-0.0021942236994949185 
0.002564571789883204 
0.3541850209566801 
0.16504576583758326 
9.171168667989046e-6 
-2.9697664071261344e-6 
0.000125353399414238 
-2.551947255470559e-5 
-0.0010163067580158083 
0.0004473392272518668 
0.0042416410973128114 
0.010959271841277922 
0.027141787842130484 
0.017479255680157336 
0.008456790299049399 
4.5049290382923385e-6 
8.388227323624873e-6 
1.2057586073466011e-5 
4.787229592173569e-5 
-0.0001332905772279197 
4.414945123447977e-6 
5.577597787335284e-5 
-7.979725963205454e-5 
0.0003399978124532982 
0.00018248050598515257 
-0.00046234397353510435 
-1.2276844355203513e-6 
-5.374262335658651e-7 
6.463650689932715e-6 
3.7774037224491237e-6 
1.101867816444318e-5 
-2.3279673772617057e-5 
-1.7156735354659712e-5 
5.397632197473986e-5 
-0.0001259076840281258 
7.354823284450714e-5 
4.145471593543234e-6 
6.533485316149628e-7 
2.086842923540782e-6 
1.063861374477409e-5 
4.697636268997825e-5 
3.657998720996774e-5 
0.00028541093368526695 
-0.0001792365575738653 
-5.924770489187494e-7 
-1.8018673056246123e-8 
-9.237505870420718e-7 
1.2211994876120968e-5 
-3.6773553958931025e-6 
-2.2001304892175704e-5 
1.3971759085793835e-5 
7.935361039892927e-5 
3.3351050930247005e-5 
5.4221914717047544e-5 
0.005763202329615429 
0.003460618992461095 
0.008445866065570906 
-1.835767927065055e-5 
-6.344968748038286e-6 
-2.8544833852940566e-7 
-4.598747804454335e-5 
-0.00010443235680974555 
0.0004035614755726133 
4.4717492651016877e-7 
2.6180534442914052e-6 
-2.5722270564013115e-6 
4.3822865643981744e-6 
-4.876603457587498e-6 
-4.830486357885572e-6 
4.824811701320052e-6 
-8.522085165988246e-6 
-6.570192727097577e-5 
-0.0006255698854299333 
0.000554072217516723 
2.5658939362985516e-5 
5.1475085858947975e-6 
1.4029285197567886e-5 
2.543888487781036e-5 
3.420550376863368e-6 
-8.394779514152992e-6 
2.0784002013433394e-6 
2.700136799913446e-5 
-3.6765320390030917e-5 
8.336530233823806e-5 
-6.647527788946496e-5 
0.0002587836950155209 
1.0458929726071343e-6 
-8.578813667275826e-6 
5.960135712481297e-5 
4.938232362712916e-5 
-4.240335174149954e-6 
-1.5170049154979771e-5 
-0.0003775095256175345 
8.879555249936013e-5 
0.00011269909097055337 
2.403203975405322e-5 
3.108911890288762e-6 
4.20967331553318e-6 
2.3075259907730302e-5 
1.8112126371920112e-5 
5.719461227474083e-5 
-6.147745686261817e-5 
-5.4357518044785544e-5 
4.665086791163025e-5 
-2.8691490205252923e-5 
-7.83689826342949e-5 
-0.00042343788648625965 
2.0146168855562244e-6 
-8.348593265089302e-6 
8.958352025133247e-6 
-6.954160022871417e-6 
2.001847476191414e-5 
-6.051227165361053e-5 
-9.223686764980533e-5 
-0.00010988764585821141 
-1.1398300685382048e-6 
-1.414504644174562e-7 
4.886054284917935e-6 
-5.268187310909169e-6 
7.558967805510421e-6 
3.4748779338883485e-6 
7.559701326688615e-5 
2.082821641287176e-5 
0.0007979517582326589 
0.002397352285917961 
-1.967529516291591e-5 
-6.491302929085549e-7 
1.4804844999484395e-5 
4.480110386610859e-5 
-3.8083343145767756e-5 
0.00024088325742496606 
0.00045380408830674135 
-0.00023365948243776844 
-0.0001821849395782338 
0.00010453825367355176 
0.0008376686786273602 
-5.897005706800295e-6 
1.1675207547420193e-5 
3.766699721118824e-7 
0.0024623413236104425 
0.0028821508075864643 
3.673920951303728e-6 
8.074110757927504e-5 
-0.0006678565749121686 
0.0002535887314967607 
2.0925194647642923e-7 
-1.097851140153939e-5 
1.0493093596221813e-5 
5.571825817447694e-6 
0.000423210590996908 
-0.0006124603135971735 
4.2518301193430934e-6 
0.0005115790720663924 
-0.0001068487306927521 
0.00014611377655570314 
4.4784969745171324e-7 
-1.609095536259912e-6 
-2.1296313407260653e-6 
7.760640492250532e-7 
-1.2939594804013929e-5 
3.277651765652515e-5 
-1.07921390712708e-5 
-0.0002926648207247577 
-4.114309285256437e-5 
5.55711937282632e-6 
2.5180338411792004e-5 
1.2045154997191167e-5 
8.464709349477957e-6 
-7.889644819461366e-6 
3.711073234944958e-6 
-2.1864078285966326e-6 
-3.0408774345998707e-5 
5.1575769295366755e-5 
5.118048582008165e-6 
4.550232599054323e-6 
0.00014594556906999731 
5.7345570893124394e-5 
-6.2333689711136e-5 
0.00017871717332579266 
-6.117467604927085e-6 
1.0864671342532147e-6 
3.415507745526172e-5 
0.00011387058986260031 
-3.2753860102249917e-6 
-7.20926465679313e-5 
0.00015785950531066692 
-0.0004060970454710191 
2.090837316284252e-5 
-4.022110050568651e-5 
-4.290617068166293e-6 
1.1324799135284264e-6 