# vtk DataFile Version 3.0 
Unstructured Grid 
ASCII 
DATASET UNSTRUCTURED_GRID
POINTS 2173 float 
-0.5 -0.5 0  
0.5 -0.5 0  
0.5 0.5 0  
-0.5 0.5 0  
-0.475 -0.5 0  
-0.45 -0.5 0  
-0.425 -0.5 0  
-0.4 -0.5 0  
-0.375 -0.5 0  
-0.35 -0.5 0  
-0.325 -0.5 0  
-0.3 -0.5 0  
-0.275 -0.5 0  
-0.25 -0.5 0  
-0.225 -0.5 0  
-0.2 -0.5 0  
-0.175 -0.5 0  
-0.15 -0.5 0  
-0.125 -0.5 0  
-0.1 -0.5 0  
-0.075 -0.5 0  
-0.05 -0.5 0  
-0.025 -0.5 0  
-1.3761214e-12 -0.5 0  
0.025 -0.5 0  
0.05 -0.5 0  
0.075 -0.5 0  
0.1 -0.5 0  
0.125 -0.5 0  
0.15 -0.5 0  
0.175 -0.5 0  
0.2 -0.5 0  
0.225 -0.5 0  
0.25 -0.5 0  
0.275 -0.5 0  
0.3 -0.5 0  
0.325 -0.5 0  
0.35 -0.5 0  
0.375 -0.5 0  
0.4 -0.5 0  
0.425 -0.5 0  
0.45 -0.5 0  
0.475 -0.5 0  
0.5 -0.475 0  
0.5 -0.45 0  
0.5 -0.425 0  
0.5 -0.4 0  
0.5 -0.375 0  
0.5 -0.35 0  
0.5 -0.325 0  
0.5 -0.3 0  
0.5 -0.275 0  
0.5 -0.25 0  
0.5 -0.225 0  
0.5 -0.2 0  
0.5 -0.175 0  
0.5 -0.15 0  
0.5 -0.125 0  
0.5 -0.1 0  
0.5 -0.075 0  
0.5 -0.05 0  
0.5 -0.025 0  
0.5 -1.3761214e-12 0  
0.5 0.025 0  
0.5 0.05 0  
0.5 0.075 0  
0.5 0.1 0  
0.5 0.125 0  
0.5 0.15 0  
0.5 0.175 0  
0.5 0.2 0  
0.5 0.225 0  
0.5 0.25 0  
0.5 0.275 0  
0.5 0.3 0  
0.5 0.325 0  
0.5 0.35 0  
0.5 0.375 0  
0.5 0.4 0  
0.5 0.425 0  
0.5 0.45 0  
0.5 0.475 0  
0.475 0.5 0  
0.45 0.5 0  
0.425 0.5 0  
0.4 0.5 0  
0.375 0.5 0  
0.35 0.5 0  
0.325 0.5 0  
0.3 0.5 0  
0.275 0.5 0  
0.25 0.5 0  
0.225 0.5 0  
0.2 0.5 0  
0.175 0.5 0  
0.15 0.5 0  
0.125 0.5 0  
0.1 0.5 0  
0.075 0.5 0  
0.05 0.5 0  
0.025 0.5 0  
1.3761214e-12 0.5 0  
-0.025 0.5 0  
-0.05 0.5 0  
-0.075 0.5 0  
-0.1 0.5 0  
-0.125 0.5 0  
-0.15 0.5 0  
-0.175 0.5 0  
-0.2 0.5 0  
-0.225 0.5 0  
-0.25 0.5 0  
-0.275 0.5 0  
-0.3 0.5 0  
-0.325 0.5 0  
-0.35 0.5 0  
-0.375 0.5 0  
-0.4 0.5 0  
-0.425 0.5 0  
-0.45 0.5 0  
-0.475 0.5 0  
-0.5 0.475 0  
-0.5 0.45 0  
-0.5 0.425 0  
-0.5 0.4 0  
-0.5 0.375 0  
-0.5 0.35 0  
-0.5 0.325 0  
-0.5 0.3 0  
-0.5 0.275 0  
-0.5 0.25 0  
-0.5 0.225 0  
-0.5 0.2 0  
-0.5 0.175 0  
-0.5 0.15 0  
-0.5 0.125 0  
-0.5 0.1 0  
-0.5 0.075 0  
-0.5 0.05 0  
-0.5 0.025 0  
-0.5 1.3761214e-12 0  
-0.5 -0.025 0  
-0.5 -0.05 0  
-0.5 -0.075 0  
-0.5 -0.1 0  
-0.5 -0.125 0  
-0.5 -0.15 0  
-0.5 -0.175 0  
-0.5 -0.2 0  
-0.5 -0.225 0  
-0.5 -0.25 0  
-0.5 -0.275 0  
-0.5 -0.3 0  
-0.5 -0.325 0  
-0.5 -0.35 0  
-0.5 -0.375 0  
-0.5 -0.4 0  
-0.5 -0.425 0  
-0.5 -0.45 0  
-0.5 -0.475 0  
-0.002115384 -0.00023065208 0  
-0.20714286 -0.20714286 0  
0.20714286 -0.20714286 0  
0.20714286 0.20714286 0  
-0.20714286 0.20714286 0  
-0.28155318 -0.0017231192 0  
0.0017231192 -0.28155318 0  
0.28155318 0.0017231192 0  
-0.0017231192 0.28155318 0  
0.3319978 -0.33098683 0  
0.33098683 0.3319978 0  
-0.3319978 0.33098683 0  
-0.33098683 -0.3319978 0  
-0.14015679 -0.06698606 0  
0.06698606 -0.14015679 0  
0.14015679 0.06698606 0  
-0.06698606 0.14015679 0  
-0.1387125 -0.34573975 0  
0.34573975 -0.1387125 0  
0.1387125 0.34573975 0  
-0.34573975 0.1387125 0  
0.14046866 -0.34602854 0  
0.34602854 0.14046866 0  
-0.14046866 0.34602854 0  
-0.34602854 -0.14046866 0  
-0.05869875 -0.16617337 0  
0.18217777 -0.061504476 0  
0.062312964 0.18362015 0  
-0.18362015 0.062312964 0  
-0.034321424 -0.38563195 0  
0.38563195 -0.034321424 0  
0.034321424 0.38563195 0  
-0.38563195 0.034321424 0  
0.39586002 -0.2428538 0  
0.2428538 0.39586002 0  
-0.39586002 0.2428538 0  
-0.2428538 -0.39586002 0  
0.23688246 -0.38952246 0  
0.38952246 0.23688246 0  
-0.23688246 0.38952246 0  
-0.38952246 -0.23688246 0  
-0.24287231 -0.09948847 0  
0.09948847 -0.24287231 0  
0.24287231 0.09948847 0  
-0.09948847 0.24287231 0  
-0.11560815 -0.24300627 0  
0.24300627 -0.11560815 0  
0.11560815 0.24300627 0  
-0.24300627 0.11560815 0  
-0.40192315 -0.4008276 0  
0.4008276 -0.40192315 0  
0.40192315 0.4008276 0  
-0.4008276 0.40192315 0  
0.06409326 -0.40289903 0  
0.40289903 0.06409326 0  
-0.06409326 0.40289903 0  
-0.40289903 -0.06409326 0  
0.2962961 -0.23982804 0  
0.23982804 0.2962961 0  
-0.2962961 0.23982804 0  
-0.23982804 -0.2962961 0  
-0.28087237 -0.21196799 0  
0.21196799 -0.28087237 0  
0.28087237 0.21196799 0  
-0.21196799 0.28087237 0  
-0.0901279 0.007867504 0  
-0.05002927 -0.07494272 0  
0.0873353 -0.009871756 0  
0.0071518295 0.09216282 0  
-0.14120433 -0.1484696 0  
-0.14581114 0.13960092 0  
0.1458264 -0.14505939 0  
0.13960092 0.14581114 0  
0.41838804 -0.3182741 0  
0.3182741 0.41838804 0  
-0.41838804 0.3182741 0  
-0.3182741 -0.41838804 0  
0.32118136 -0.41712493 0  
0.41712493 0.32118136 0  
-0.32118136 0.41712493 0  
-0.41712493 -0.32118136 0  
-0.19707234 -0.014843048 0  
0.018050108 -0.20183705 0  
0.19707234 0.014843048 0  
-0.014843048 0.19707234 0  
-0.10938372 -0.41847488 0  
0.41847488 -0.10938372 0  
0.10938372 0.41847488 0  
-0.41847488 0.10938372 0  
0.15773043 -0.4267032 0  
0.4267032 0.15773043 0  
-0.15773043 0.4267032 0  
-0.4267032 -0.15773043 0  
-0.3204562 -0.07174808 0  
0.07174808 -0.3204562 0  
0.3204562 0.07174808 0  
-0.07174808 0.3204562 0  
0.02801032 -0.07269879 0  
-0.31817523 0.069836795 0  
-0.069836795 -0.31817523 0  
0.31817523 -0.069836795 0  
0.069836795 0.31817523 0  
0.43106207 -0.17757268 0  
0.17757268 0.43106207 0  
-0.43106207 0.17757268 0  
-0.17757268 -0.43106207 0  
0.0703783 0.071201205 0  
-0.051593844 0.064346604 0  
0.099701226 -0.08333426 0  
0.2863281 -0.17248559 0  
0.17248559 0.2863281 0  
-0.2863281 0.17248559 0  
-0.17248559 -0.2863281 0  
-0.2341888 0.04979648 0  
-0.049194112 -0.231281 0  
0.23358595 -0.04946041 0  
0.04979648 0.2341888 0  
-0.009939441 -0.13691185 0  
-0.26560438 -0.17864102 0  
0.17864102 -0.26560438 0  
0.26560438 0.17864102 0  
-0.17864102 0.26560438 0  
0.013302229 -0.43510666 0  
0.43510666 0.013302229 0  
-0.013302229 0.43510666 0  
-0.43510666 -0.013302229 0  
0.09432827 0.114700764 0  
-0.11539384 0.093188405 0  
-0.3413634 -0.005100272 0  
0.005100272 -0.3413634 0  
0.3413634 0.005100272 0  
-0.005100272 0.3413634 0  
-0.19817708 -0.3508856 0  
0.3508856 -0.19817708 0  
0.19817708 0.3508856 0  
-0.3508856 0.19817708 0  
-0.34100306 -0.27216324 0  
0.27216324 -0.34100306 0  
0.34100306 0.27216324 0  
-0.27216324 0.34100306 0  
-0.20269383 -0.14403741 0  
0.14393912 -0.2028372 0  
0.2026342 0.14393856 0  
-0.14393856 0.2026342 0  
-0.1030633 -0.10524017 0  
-0.4394695 -0.104853734 0  
0.104853734 -0.4394695 0  
0.4394695 0.104853734 0  
-0.104853734 0.4394695 0  
-0.44156647 -0.44156647 0  
0.44156647 -0.44156647 0  
0.44156647 0.44156647 0  
-0.44156647 0.44156647 0  
-0.2683254 -0.44465622 0  
0.44465622 -0.2683254 0  
0.2683254 0.44465622 0  
-0.44465622 0.2683254 0  
0.2654342 -0.4435478 0  
0.4435478 0.2654342 0  
-0.2654342 0.4435478 0  
-0.4435478 -0.2654342 0  
-0.27373606 -0.34534052 0  
0.34534052 -0.27373606 0  
0.27373606 0.34534052 0  
-0.34534052 0.27373606 0  
-0.05307205 -0.4481981 0  
0.4481981 -0.05307205 0  
0.05307205 0.4481981 0  
-0.4481981 0.05307205 0  
-0.35614902 -0.19390328 0  
0.19390328 -0.35614902 0  
0.35614902 0.19390328 0  
-0.19390328 0.35614902 0  
-0.14022674 -0.012452113 0  
0.14171903 0.011271359 0  
-0.01125192 0.14089845 0  
-0.19556868 -0.06932378 0  
0.070511825 -0.19668652 0  
0.19556868 0.06932378 0  
-0.06932378 0.19556868 0  
-0.24951252 -0.039742906 0  
0.04037078 -0.2503529 0  
0.24951252 0.039742906 0  
-0.039742906 0.24951252 0  
0.44100407 -0.36164257 0  
0.36164257 0.44100407 0  
-0.44100407 0.36164257 0  
-0.36164257 -0.44100407 0  
-0.4451273 -0.36589316 0  
0.36589316 -0.4451273 0  
0.4451273 0.36589316 0  
-0.36589316 0.4451273 0  
0.1121834 -0.30242515 0  
0.30242515 0.1121834 0  
-0.1121834 0.30242515 0  
-0.30242515 -0.1121834 0  
-0.115146436 -0.19087775 0  
0.19190264 -0.11309679 0  
0.11520548 0.19263776 0  
-0.19263776 0.11520548 0  
-0.08287991 -0.37025127 0  
0.37025127 -0.08287991 0  
0.08287991 0.37025127 0  
-0.37025127 0.08287991 0  
0.23791528 -0.24381089 0  
0.24381089 0.23791528 0  
-0.23791528 0.24381089 0  
-0.24381089 -0.23791528 0  
-0.44626984 -0.21174923 0  
0.21174923 -0.44626984 0  
0.44626984 0.21174923 0  
-0.21174923 0.44626984 0  
0.35174853 -0.37705234 0  
0.37705234 0.35174853 0  
-0.35174853 0.37705234 0  
-0.37705234 -0.35174853 0  
-0.048605647 -0.023262763 0  
-0.1551113 -0.21381997 0  
0.21381997 -0.1551113 0  
0.1551113 0.21381997 0  
-0.21381997 0.1551113 0  
-0.29403278 -0.30027482 0  
0.30027482 -0.29403278 0  
0.29403278 0.30027482 0  
-0.30027482 0.29403278 0  
0.12173745 -0.390654 0  
0.390654 0.12173745 0  
-0.12173745 0.390654 0  
-0.390654 -0.12173745 0  
-0.12236246 -0.2979882 0  
0.2979882 -0.12236246 0  
0.12236246 0.2979882 0  
-0.2979882 0.12236246 0  
-0.0945969 -0.046371013 0  
0.035276897 -0.027358124 0  
-0.0076714605 0.051946 0  
-0.30809116 -0.17165439 0  
0.17165439 -0.30809116 0  
0.30809116 0.17165439 0  
-0.17165439 0.30809116 0  
-0.16592422 -0.10879113 0  
0.10700909 -0.1687818 0  
0.16864619 0.10664837 0  
-0.10664837 0.16864619 0  
-0.16784625 -0.38069874 0  
0.38069874 -0.16784625 0  
0.16784625 0.38069874 0  
-0.38069874 0.16784625 0  
-0.4563872 -0.05993889 0  
0.05993889 -0.4563872 0  
0.4563872 0.05993889 0  
-0.05993889 0.4563872 0  
0.31103167 -0.37412483 0  
0.37412483 0.31103167 0  
-0.31103167 0.37412483 0  
-0.37412483 -0.31103167 0  
-0.3909646 -0.012754724 0  
0.012754724 -0.3909646 0  
0.3909646 0.012754724 0  
-0.012754724 0.3909646 0  
0.44915667 -0.21679194 0  
0.21679194 0.44915667 0  
-0.44915667 0.21679194 0  
-0.21679194 -0.44915667 0  
0.045831423 0.12033131 0  
-0.12662303 0.045442794 0  
-0.3107799 -0.37355793 0  
0.37355793 -0.3107799 0  
0.3107799 0.37355793 0  
-0.37355793 0.3107799 0  
0.04152367 0.021693805 0  
-0.08040017 -0.2675595 0  
0.26794365 -0.08044455 0  
0.080500565 0.2680441 0  
-0.2680441 0.080500565 0  
-0.13753757 -0.45578164 0  
0.45578164 -0.13753757 0  
0.13753757 0.45578164 0  
-0.45578164 0.13753757 0  
-0.05507968 -0.12135967 0  
0.14172421 -0.09428923 0  
0.2571752 -0.19664502 0  
[...]
POINT_DATA 2173 
SCALARS T float 
LOOKUP_TABLE default 
2.1290511539656516e-19 
3.576660852502812e-19 
6.215464978258135e-18 
1.1142743479575711e-19 
3.2052061589270363e-18 
-2.754523541503027e-19 
1.1958635215682274e-18 
2.1849484409736773e-18 
1.0091996818463882e-17 
1.100846455210554e-17 
6.168938757046843e-18 
-9.503381261248786e-19 
-1.3089433400046053e-17 
2.7582144548625467e-17 
-2.2456318978081612e-17 
7.839598512228145e-18 
5.8024068272879656e-18 
-7.902832225165764e-18 
1.4079754137692518e-17 
-2.019390400074332e-17 
2.062150727379406e-17 
-1.011968742862505e-17 
-2.2476094197212952e-18 
3.5514161040602177e-19 
-1.4934063074061314e-18 
5.437950678080085e-18 
-1.1887393913185197e-17 
-3.0166403521770213e-17 
4.592012529890161e-17 
-1.4897028617592046e-17 
1.1996362135053154e-17 
2.1347794411204513e-17 
-5.935116619216507e-17 
7.115053604787364e-17 
-3.2073044145300033e-17 
-9.742493241997192e-18 
-8.663334612463525e-18 
-2.00001863220015e-17 
-3.651839545591537e-17 
-4.021541550762516e-17 
7.912422464119693e-18 
-2.0989827365371276e-17 
-1.7897160223621598e-17 
1.6491253345325415e-17 
1.6211711432870003e-17 
-1.4463586010990267e-17 
3.705934178033254e-17 
5.298684876650158e-17 
5.2803921902034614e-17 
9.355487878348212e-18 
-4.113279958582778e-17 
-2.4571161716037443e-18 
-4.1758668350050133e-17 
1.6496319297716083e-17 
2.0783305531025086e-18 
-1.5380993994573403e-17 
6.382811564830739e-17 
-4.7795945958777814e-17 
7.614627349054e-17 
-6.18062264786595e-17 
-4.5346126010712006e-17 
1.5845289824821442e-16 
9.854734669814847e-18 
-1.270208222766026e-16 
2.3461752662014365e-16 
-2.718586163814296e-16 
4.152757476258041e-16 
-3.570703840731606e-17 
7.894112380191309e-17 
9.19011016981821e-17 
-1.3181377139604236e-16 
3.031603135688425e-16 
-2.228112020384556e-16 
-1.0189062723357664e-16 
-1.7303535659552827e-16 
1.402583710694929e-16 
-3.4820368784276874e-16 
-1.2480827235144082e-17 
1.5212018927547996e-16 
-1.9989601371276488e-16 
1.1717696738622939e-16 
5.437992476509151e-17 
-1.8961212275602335e-17 
-5.559469100190079e-17 
4.841085470597089e-16 
-1.395877141440825e-16 
-1.8137323605142664e-16 
-3.7152893843774335e-16 
-2.0094936069839723e-16 
2.090599523172989e-17 
-3.315760525036016e-17 
3.217235231727933e-16 
-4.009911477413177e-16 
-1.2682462628072257e-16 
6.127154834588475e-17 
-3.9116615897718726e-16 
1.4458621271047752e-15 
-2.7373086346397773e-16 
2.3124516212613815e-16 
2.9336629385216843e-16 
3.146557608867507e-16 
-3.92790640536192e-16 
1.5300091209054621e-16 
1.8538131818605239e-16 
-5.516888345504386e-16 
4.440808373627797e-16 
3.002776417788814e-16 
-2.665152157652116e-16 
2.0888843120472768e-16 
-9.743636894074116e-17 
1.2483861243167062e-16 
-4.067426175196836e-16 
-3.6864453342527555e-16 
-5.07360823670932e-16 
-1.2088073350986667e-16 
-1.467796923883843e-16 
-1.1801399511658106e-17 
1.2967735162042112e-18 
5.752884473364541e-18 
4.149909453856741e-18 
3.441098613598731e-18 
-2.6629328992523397e-18 
-1.5917087741464732e-18 
4.559032806423471e-18 
4.677588875876288e-19 
3.5126620775615136e-18 
9.025752912471246e-18 
-2.5837607188835548e-17 
4.454466346664542e-17 
-1.053218577847433e-16 
7.126267326103122e-17 
-1.3798023224280344e-17 
6.5970112212359096e-18 
-5.0949260980898355e-18 
1.1496608957622179e-17 
5.765089383987467e-18 
-1.3039287560423953e-18 
2.386601216167728e-18 
3.0599763551431033e-19 
-2.497704581185876e-19 
8.769373380876856e-19 
-9.129732201259271e-19 
8.472513072840345e-19 
-2.9439920833454365e-19 
-2.2130535226416513e-18 
7.647583282651468e-18 
-1.1919448962774663e-18 
1.3964059104844655e-18 
3.742938137451215e-18 
-8.405666217485552e-18 
7.91939706752993e-18 
-9.571464193474504e-18 
-1.000896785030377e-17 
1.2975041817025048e-18 
1.3613240352508296e-19 
-4.935232432513616e-18 
-7.681101023499952e-18 
2.5739898538187335e-19 
-2.5721711587386816e-18 
-2.84131310588198e-18 
7.356549895828988e-6 
1.843594088027035e-6 
-1.8500266572992927e-5 
-0.00049598877588751 
0.44761324139722714 
0.0008998720527113854 
2.0653360044497543e-6 
7.544579989462155e-5 
0.003443075607475605 
4.432020902723081e-5 
0.0003175366757024114 
-9.836599827712234e-5 
-6.794099936917986e-7 
-1.5045960795633814e-5 
7.4760116234823975e-6 
-3.855421425210941e-5 
0.07694629419600556 
3.8583884206395235e-6 
-2.893871707565648e-5 
-0.00037283941332364134 
0.006754349670428072 
5.646521982237655e-6 
-5.5795631811561575e-5 
0.006364066108030303 
4.324947225933395e-6 
-3.218452735911771e-6 
0.00010835269254352861 
0.00066006211161404 
0.0898587673870711 
-5.760985088533782e-6 
5.691849481138175e-5 
-0.0020557360540109254 
-5.632425102349231e-5 
1.937033335389184e-6 
-0.0005053394220802351 
0.0002246159770226216 
1.2705852548710305e-7 
-6.328053236519182e-6 
-3.416701187033119e-5 
-0.0004699695633149066 
9.215204173966363e-7 
-5.067127392024712e-6 
4.90723569875232e-6 
2.0741688475319036e-5 
0.13169830418355194 
-5.520843780334388e-6 
4.6141540251943114e-5 
0.0006509983988078116 
0.19066047679645884 
1.549801542798364e-6 
2.7941333886295984e-6 
-0.00013595326772018079 
1.839136062936468e-5 
6.708461592111841e-6 
-0.00019902193133812865 
-0.0005026595065217788 
2.1365086302835442e-6 
-1.0467559890394758e-5 
-0.00037948450663859623 
0.031206647918542187 
1.4519855750855322e-6 
1.7407379955781298e-7 
4.027518668246631e-6 
8.450017055800983e-5 
0.08950688747744638 
0.0017048261866924642 
-1.7663161883705246e-6 
-0.00012716204294762395 
0.001074945408462075 
-1.298110137074822e-6 
0.41662626544035924 
3.776482716682589e-6 
0.00046638647497570883 
2.1308162495155237e-5 
-0.00010130538456077261 
-3.6778600426532065e-6 
3.1873570026008397e-6 
-1.4014836904480065e-5 
-0.00017819146848034137 
-0.00033951537124462356 
-6.9741036746112845e-6 
0.0018262890914724223 
1.7111897187101786e-7 
9.174454513239603e-5 
0.007975227616564941 
8.131980808740991e-6 
3.473270643173952e-5 
-0.0011755503525893907 
-5.494693716613424e-5 
-5.952332089177437e-6 
8.595026015789374e-5 
-0.0005707988556074945 
1.6640147448954417e-6 
-2.201319803071631e-6 
-3.495645953327553e-7 
-0.00018081209211263935 
0.004226319056518576 
-2.5518465467540148e-5 
0.006237006227472633 
1.0504119833366417e-6 
-5.599655953761467e-5 
-0.0006866531319112717 
2.0345158573250846e-5 
-0.0008293136239117223 
9.81715021311952e-6 
-3.943105354396346e-6 
0.00010848004746487396 
0.006211343986580926 
6.982240266957345e-5 
-2.7317299299445958e-5 
0.0004713675641621323 
0.10315600122013724 
-1.1478628856611588e-6 
0.03961323638213614 
-2.535626183268999e-6 
8.15629625460597e-5 
0.0013744490432930907 
-1.5785686611164e-5 
-6.210372012956168e-7 
-1.5227707235796777e-5 
-0.00022625728810885708 
0.18333314788696095 
-1.364432374748425e-6 
-3.7126610699594197e-5 
-0.0010650864419637853 
-2.2842341243657795e-6 
-8.099308166822065e-5 
0.11333303732615173 
-6.229705121434994e-5 
-1.0455517926655028e-6 
-0.00015006366309359978 
0.0012102827683139468 
2.0336554478008095e-6 
-1.3597946156209492e-5 
-0.0005279471659180728 
0.0045641048924140925 
-1.4841114470043044e-6 
-2.3622581309394825e-5 
-0.0002896430330453427 
0.0010208975027476653 
-1.5482759450125117e-6 
-1.3930573129886054e-5 
0.0001478840692047587 
0.4821638575970124 
6.416756063897151e-6 
-1.4041238716988434e-6 
-1.413429887128518e-6 
0.00010623110737000885 
-9.096432592726523e-6 
1.4814696051966428e-6 
7.71151793688282e-6 
-2.85595526858582e-5 
5.186768299818051e-7 
-4.723443617409163e-6 
3.765315656246459e-5 
-0.00036351819929794345 
7.48271967283802e-5 
2.6637423454250203e-5 
-0.00028736400386967023 
-0.0003879652700936342 
-3.3367008499920413e-8 
3.1359339865320745e-6 
-3.5566313377230454e-5 
-0.0002804648557775791 
0.0008174372367450391 
1.0573606129468084e-7 
-1.8213546675375768e-5 
6.641748654136491e-5 
-2.719912878109936e-6 
-2.6966895325960542e-6 
-1.3661089654963146e-5 
9.051521764276199e-5 
0.00294401670507673 
0.0015963675360355731 
2.1452045518245003e-5 
0.005832841881042176 
-2.0979478870306446e-5 
-1.4786030803759487e-5 
-0.0003612398383280554 
0.10057141311136152 
0.00010641227463994887 
4.255455245980782e-6 
-0.00010288226131106722 
0.018452929790043496 
3.2216022086953094e-5 
-0.0004064574905347225 
-5.977823399197584e-6 
-4.545634770581607e-6 
-7.049816591239117e-7 
3.49411131593759e-5 
-0.0003513727233429899 
-6.82348470137184e-5 
-6.890436786470948e-6 
9.426919820885707e-5 
0.025179254118457322 
-3.152148919313784e-6 
-3.542087460000024e-6 
6.897685213919467e-5 
0.0014129098447972597 
0.3341164187324891 
-3.04162575567408e-6 
-0.00010851273331653123 
-0.00014938417411836216 
0.00028960768708022414 
-2.5216863387283915e-5 
0.00035210059345864404 
0.16227402213919478 
1.5582605558699909e-6 
-4.6221272655052216e-6 
-1.1153208428921471e-5 
-7.27193602663504e-5 
-8.44976137674891e-5 
-1.1686902648314385e-5 
-0.00010048494296312204 
6.206537078699687e-5 
4.467718086568993e-6 
2.3499959374158495e-5 
-6.729982737884359e-6 
-1.769791674932201e-5 
0.0006256971042866531 
0.4545148589731232 
3.2310428652709527e-6 
-3.3758142269485585e-5 
5.5392685496380235e-5 
0.00479379775044628 
-1.0642693823616975e-5 
4.9656038252288713e-5 
-0.0005256588972714291 
1.5519257472255425e-6 
9.055864438505115e-6 
-2.4226815681728387e-5 
-0.001963076077646842 
0.04919763004051347 
-4.548243502088752e-6 
-8.330993711003626e-6 
0.0005967914168282898 
-2.5195029881005746e-6 
1.9594245308034536e-6 
-6.33550406414007e-5 
0.0410178113576112 
-6.405404042716488e-7 
4.800068497473691e-5 
0.000276120390742283 
0.2860397373605853 
7.0097776309001865e-6 
-6.56662805821848e-5 
-0.0005504746092361296 
0.0006425482841730547 
7.047315178367828e-7 
-2.786899579489415e-6 
1.482150813145212e-5 
0.00017263083054644624 
-4.68522927704789e-7 
-0.00019192975390003173 
-0.00023388480240342944 
-2.9356814748377012e-6 
-1.6180670807567982e-5 
6.3171628359933564e-6 
6.340206892598726e-5 
-0.0002276565474206586 
2.867754768207172e-5 
-0.00015343044586427492 
2.6941048964615072e-5 
1.4446307522092215e-5 
0.0004656909346643855 
0.02787030096852865 
4.830715395681738e-6 
1.908689273124961e-7 
-7.527914100844806e-5 
-0.00013148199632003596 
0.0001633921724104568 
-2.663079145753927e-6 
-2.0728326909503397e-6 
-0.0011599366732868693 
0.050339532857592545 
9.318380424470283e-6 
4.692445461708681e-6 
-0.0011745762766158093 
-3.2567786238508848e-6 
-2.576446687801544e-6 
7.939200419408527e-6 
-3.05679211982647e-5 
-0.0004362088720292215 
0.2087067741241283 
-3.4326099013597364e-6 
0.00012267142695414576 
1.6133597275715243e-6 
5.25900862140525e-6 
1.5231715280836917e-6 
2.6078505982364677e-5 
-3.796461979935752e-5 
7.301209494963287e-6 
-7.213842845690378e-5 
-1.576611856560471e-5 
-9.646086382881885e-6 
2.5137167585537068e-5 
5.1088042348569004e-5 
5.427029660157914e-5 
6.119258037570273e-6 
-0.00034975075899501264 
0.010077124741946346 
-1.1437492371926968e-5 
1.0333847139137272e-5 
5.588678531260159e-5 
0.019032612090350853 
0.0005227950297303604 
9.22802998731589e-5 
1.3118162927506934e-5 
-2.6919364394544405e-6 
8.70582689431809e-5 
-0.002830833846186963 
0.019838048773054225 
0.005260702589937126 
-6.815689908702798e-6 
-0.00012855004099552247 
0.0018516316339424537 
-6.762875506461943e-6 
-1.760122625378696e-5 
2.7077963166548584e-5 
-0.00038701948625021447 
-5.1182661152082584e-5 
-2.6068877993179472e-6 
4.98738749620084e-6 
5.713929525020688e-5 
0.0011232111529189957 
-9.153774235648136e-7 
-4.269017187343488e-6 
8.277322531871177e-7 
-0.0002173524533193625 
-0.0001240243989229836 
5.571449904638226e-6 
0.0003788037665739559 
-1.7870290196308976e-6 
-2.4263000386540275e-5 
0.0004416791090458485 
-4.622090829823668e-6 
-7.688551730237813e-5 
-0.0003558746507268509 
-1.467662553857996e-6 
-9.983670617622946e-6 
0.00011557864307092027 
-0.0036385089011670064 
-1.319597993216178e-5 
-4.310725732702363e-7 
-2.424546653704238e-6 
-9.510957358866242e-5 
0.0004480252145888048 
-1.8039341023125933e-6 
0.5978016862489629 
-1.637728567318708e-5 
0.00022732178622749706 
8.093609369699462e-6 
-0.00017529187519615874 
9.442015248847657e-5 
-1.691679380563018e-6 
3.558675238072525e-6 
-2.909514038046385e-5 
-0.00039009485180565065 
0.0005145259104960165 
3.154042669917204e-6 
-0.00012358684315608048 
0.0005487142952786204 
-2.7365870207798254e-7 
-3.1420881377418594e-6 
-1.4286558970434467e-5 
6.740251235407777e-5 
-0.0004786381724479536 
9.958020696980605e-6 
-0.0002157495077999077 
1.9977495144988152e-7 
3.3856489929261094e-7 
5.436561257798877e-6 
-2.079418219758721e-7 
9.547998961196358e-6 
9.871200757254828e-7 
0.006032505145938198 
2.8971113466714465e-6 
-9.738044382897649e-5 
-0.0014765045742126724 
0.00014577466687285502 
0.00032595648390088173 
0.03070690203422139 
0.00044466051714619185 
0.2013046130405611 
-3.45673284139957e-5 
-5.9696465952557744e-6 
-3.563223997371529e-5 
0.001464600574218623 
-3.690125006630139e-5 
-7.471054761213616e-6 
0.00015578849437023336 
-0.0010591476296010834 
-0.00016461028904419847 
-2.9692747046977673e-7 
8.419552819632772e-6 
-0.0007576920041843361 
0.2686662921715505 
-2.1086864670136986e-6 
0.0005832175226555184 
1.6915203517261044e-5 
6.391304699509413e-6 
0.0009042247215325872 
1.7558446060003215e-6 
1.8756038778065914e-5 
-0.00046589537096497307 
0.27003798942523594 
-3.8136555163764237e-7 
-0.00020850894361216824 
-0.0005805891755592568 
8.890106014809414e-7 
-1.6415864772945623e-5 
0.00018749109599642026 
0.23102076776512523 
-2.8413637345300553e-7 
-0.00016753899524799205 
0.04324919669070412 
-2.1557147056153087e-6 
3.962816434818684e-5 
0.02787721966065183 
-2.0401346291615875e-6 
0.006742710720268379 
4.694130155406167e-6 
-6.599656435564018e-5 
-9.177359617525893e-5 
3.394190700896716e-6 
-5.980197728929828e-6 
0.00023197015882895557 
0.008427434426055397 
8.494377933968495e-10 
4.9660131278397857e-5 
-0.0015507295831873674 
0.13509490571396904 
-7.013296597314917e-5 
-0.00033586245041384525 
0.002533440193618051 
1.3152966847386565e-6 
7.672383874770588e-6 
-3.818536806876152e-6 
0.0001952439438507468 
8.04222548020196e-5 
5.283999192234476e-7 
-8.525511518935757e-6 
-4.772002491453881e-5 
0.02301615991341645 
5.048880810525987e-6 
-3.6850198488224104e-6 
-6.993028095742484e-5 
0.033392929518896254 
-4.058143818009385e-5 
0.1927348172582711 
2.4945932023106376e-5 
-6.841285346513031e-5 
0.0002157501039860236 
3.4446590849175705e-6 
-1.4119721803883022e-6 
1.347880212317669e-5 
-0.0001590319248126521 
-3.119524764015389e-6 
1.5638913970794134e-6 
6.897285595871548e-6 
1.8564626908163826e-5 
0.18144705626289992 
0.015243550235884066 
0.0001044281811002762 
0.0037652208468070426 
0.011310204208808537 
-3.235741493278017e-5 
1.4485006525229433e-5 
-9.204463768059019e-5 
-0.00010554084938433191 
-7.452248705777344e-5 
-1.4572164989022909e-5 
4.5650685439292126e-6 
1.2967233611062486e-5 
6.29342887275341e-5 
-0.00012614222554256928 
-7.369925031999925e-6 
-1.2173703553619447e-6 
0.42742370812716257 
-1.7243064844010097e-7 
-1.0799171131241725e-5 
-0.00017502865964917866 
0.0005116140973544671 
-8.124912935833852e-6 
-1.266262637126919e-7 
4.442462528074309e-6 
-9.405942669446416e-7 
3.065282508780557e-5 
-3.558423959504948e-5 
-2.1809820704520608e-7 
0.00019581033008699497 
-0.0005209272390991447 
-0.0007504994589801864 
0.5533446865951119 
0.41802888967059104 
0.5031228650988141 
-2.6549549048234955e-6 
-6.008112312480933e-7 
-3.0903146883638525e-6 
-1.8160325987649024e-5 
-6.479864132128988e-5 
-1.436446811691445e-5 
2.4195811237183862e-5 
0.0029749151060326864 
-0.002168536394145974 
0.03004291985201275 
0.04558927149533164 
0.06551761629290251 
8.222102849474472e-7 
2.5748644364273487e-6 
0.5477225188144662 
0.41241697075061673 
8.648084239742414e-6 
6.609326799448756e-7 
0.0006564362726422364 
-0.0009894118829256837 
0.07851013833602608 
0.12044336655923582 
4.365627278255106e-6 
-1.6757791764781723e-6 
-7.072163962190509e-5 
-5.565543557982657e-5 
0.00016526881208581815 
0.0020849405318616766 
0.00038819110807325756 
-0.00010549052608072298 
-2.2514799270579787e-5 
-3.433974166977032e-6 
-6.291079845893572e-6 
-8.352237461720078e-6 
8.348490251661685e-8 
1.1243685018824743e-6 
9.441690740284847e-6 
-1.968992164301965e-6 
-5.249823883444349e-6 
3.459155255880085e-6 
3.63387519932662e-5 
-2.6418990561508097e-5 
4.822323644276179e-5 
-0.0003325343073808873 
0.00031543814700907795 
-9.649217997377499e-5 
-4.7105143757563197e-5 
0.00010090790752238355 
-3.185286124833793e-6 
5.121218934160283e-6 
-6.547556268310991e-6 
2.62592057857249e-5 
0.00022422479899428095 
-9.25803286582666e-5 
1.5805711936394788e-5 
-5.582472359755195e-7 
1.0086201428728157e-5 
7.529672426498048e-7 
2.0301355493137336e-5 
2.033732991654881e-5 
-6.669417860953456e-5 
-6.955651397199787e-5 
3.47914008231514e-6 
4.2664461864553766e-7 
0.002626032785307734 
0.0004193571353734781 
0.00014940266387115784 
1.7386678675996343e-6 
-1.3648512477020323e-6 
1.938315840814583e-6 
-5.0708612480083316e-5 
4.987037840649815e-5 
2.0173320604572253e-5 
0.0028817805715924028 
0.001981461771174712 
-0.0017168848274293962 
1.61514933437481e-6 
1.1226874490812008e-5 
-1.469323801179727e-5 
-1.0138567160417952e-5 
0.00015599494201627178 
-1.1397978209639607e-5 
-4.443285562131831e-5 
1.2810537296655032e-7 
1.9188293095832557e-5 
-4.453216925281232e-6 
1.1062900206794465e-5 
-6.251637076380864e-7 
8.524510646089036e-6 
-2.3153550185843282e-5 
1.2029581626340941e-5 
6.770272934143788e-5 
3.900128015019562e-5 
7.053849126388075e-5 
0.00020234453121373164 
-4.1587576016628343e-5 
0.00019334682001920123 
4.672060664524331e-6 
-7.044950478929418e-6 
3.859112974507254e-6 
1.2693961254584239e-5 
-1.561920759126842e-5 
0.00012753365140490562 
4.0486353927070924e-5 
-2.834551070323497e-5 
7.954474156125845e-5 
0.00018611537640273945 
-2.9609716295442924e-6 
1.4847183930448926e-5 
2.9169296569680724e-5 
-2.793538293582775e-5 
-0.0001495740753485161 
-0.00020332896003329555 
-6.106984310887659e-5 
-5.46017878008755e-8 
3.884196388195279e-6 
0.0019018296339301105 
0.000224010044001095 
0.000236728751646197 
4.675884359884447e-6 
2.196711512333187e-6 
2.6471355526647572e-5 
-1.2623904638480033e-5 
-1.2942689119644053e-5 
4.9049964246247136e-5 
8.797286544613663e-5 
2.6422115914916926e-5 
-4.022076860925883e-6 
2.2617711955930174e-6 
1.4379268943730553e-5 
-2.2608754925476428e-5 
-0.00023009946415198065 
0.00020770807208071352 
-1.335900598183162e-6 
2.7974459589496816e-6 
0.0017885039111254991 
6.058457506193268e-5 
4.230966548058288e-6 
9.214923264605988e-8 
-9.663617813602767e-5 
0.00010190508451904559 
0.00023056996977177115 
-0.0010964340900083253 
-5.058944785666326e-6 
1.5860994777488975e-6 
2.6611663086865687e-6 
-8.498550907916905e-6 
-1.195217564705648e-5 
1.1993383455898238e-5 
-0.0003861209899853187 
6.0763458441852853e-5 
0.0004063241045096024 
-0.0003639690586081912 
0.0001692755289430823 
0.0014655490698872362 
-0.00022007576551324383 
0.00032135004111621257 
-5.582742027711645e-6 
2.9358526274266678e-6 
-7.160401155101585e-6 
1.3397300412022822e-5 
-0.0006683090680602141 
0.0001796232797024366 
-3.549992339619757e-5 
-0.00011064572829880625 
4.4663097645728155e-6 
7.27477213299318e-6 
-5.362451863648574e-6 
8.438753340318961e-5 
-9.498257456173152e-5 
-8.461858572912028e-5 
0.0008515918128478382 
0.0001774612800567165 
-0.0002503955301404423 
-2.4341992406331594e-6 
1.490698792842192e-6 
2.150568297331315e-6 
-1.701065120539619e-5 
-6.942142618953062e-6 
-1.8866754377402233e-5 
-0.0002220717595023971 
2.5708444435803107e-6 
-0.00021606306570975142 
0.0002310260601345007 
6.331112911914732e-5 
0.00022963805713612902 
2.6701744920084186e-7 
-8.408183807171771e-7 
4.333081076570932e-6 
-2.209045982730113e-6 
9.61677479867139e-7 
-1.269599063855436e-6 
2.3180257126346922e-5 
-7.233049168495513e-5 
0.00012487068346850568 
3.469605898825611e-5 
0.0006167688980505175 
-6.447984675942209e-6 
-9.794106011872418e-6 
-1.778450753092678e-6 
-9.236580457140733e-6 
-4.490848097318006e-6 
-5.283703806694047e-6 
-0.00018209627853305044 
0.0001754369811162505 
0.00025667354020288293 