# vtk DataFile Version 3.0 
Unstructured Grid 
ASCII 
DATASET UNSTRUCTURED_GRID
POINTS 2173 float 
-0.5 -0.5 0  
0.5 -0.5 0  
0.5 0.5 0  
-0.5 0.5 0  
-0.475 -0.5 0  
-0.45 -0.5 0  
-0.425 -0.5 0  
-0.4 -0.5 0  
-0.375 -0.5 0  
-0.35 -0.5 0  
-0.325 -0.5 0  
-0.3 -0.5 0  
-0.275 -0.5 0  
-0.25 -0.5 0  
-0.225 -0.5 0  
-0.2 -0.5 0  
-0.175 -0.5 0  
-0.15 -0.5 0  
-0.125 -0.5 0  
-0.1 -0.5 0  
-0.075 -0.5 0  
-0.05 -0.5 0  
-0.025 -0.5 0  
-1.3761214e-12 -0.5 0  
0.025 -0.5 0  
0.05 -0.5 0  
0.075 -0.5 0  
0.1 -0.5 0  
0.125 -0.5 0  
0.15 -0.5 0  
0.175 -0.5 0  
0.2 -0.5 0  
0.225 -0.5 0  
0.25 -0.5 0  
0.275 -0.5 0  
0.3 -0.5 0  
0.325 -0.5 0  
0.35 -0.5 0  
0.375 -0.5 0  
0.4 -0.5 0  
0.425 -0.5 0  
0.45 -0.5 0  
0.475 -0.5 0  
0.5 -0.475 0  
0.5 -0.45 0  
0.5 -0.425 0  
0.5 -0.4 0  
0.5 -0.375 0  
0.5 -0.35 0  
0.5 -0.325 0  
0.5 -0.3 0  
0.5 -0.275 0  
0.5 -0.25 0  
0.5 -0.225 0  
0.5 -0.2 0  
0.5 -0.175 0  
0.5 -0.15 0  
0.5 -0.125 0  
0.5 -0.1 0  
0.5 -0.075 0  
0.5 -0.05 0  
0.5 -0.025 0  
0.5 -1.3761214e-12 0  
0.5 0.025 0  
0.5 0.05 0  
0.5 0.075 0  
0.5 0.1 0  
0.5 0.125 0  
0.5 0.15 0  
0.5 0.175 0  
0.5 0.2 0  
0.5 0.225 0  
0.5 0.25 0  
0.5 0.275 0  
0.5 0.3 0  
0.5 0.325 0  
0.5 0.35 0  
0.5 0.375 0  
0.5 0.4 0  
0.5 0.425 0  
0.5 0.45 0  
0.5 0.475 0  
0.475 0.5 0  
0.45 0.5 0  
0.425 0.5 0  
0.4 0.5 0  
0.375 0.5 0  
0.35 0.5 0  
0.325 0.5 0  
0.3 0.5 0  
0.275 0.5 0  
0.25 0.5 0  
0.225 0.5 0  
0.2 0.5 0  
0.175 0.5 0  
0.15 0.5 0  
0.125 0.5 0  
0.1 0.5 0  
0.075 0.5 0  
0.05 0.5 0  
0.025 0.5 0  
1.3761214e-12 0.5 0  
-0.025 0.5 0  
-0.05 0.5 0  
-0.075 0.5 0  
-0.1 0.5 0  
-0.125 0.5 0  
-0.15 0.5 0  
-0.175 0.5 0  
-0.2 0.5 0  
-0.225 0.5 0  
-0.25 0.5 0  
-0.275 0.5 0  
-0.3 0.5 0  
-0.325 0.5 0  
-0.35 0.5 0  
-0.375 0.5 0  
-0.4 0.5 0  
-0.425 0.5 0  
-0.45 0.5 0  
-0.475 0.5 0  
-0.5 0.475 0  
-0.5 0.45 0  
-0.5 0.425 0  
-0.5 0.4 0  
-0.5 0.375 0  
-0.5 0.35 0  
-0.5 0.325 0  
-0.5 0.3 0  
-0.5 0.275 0  
-0.5 0.25 0  
-0.5 0.225 0  
-0.5 0.2 0  
-0.5 0.175 0  
-0.5 0.15 0  
-0.5 0.125 0  
-0.5 0.1 0  
-0.5 0.075 0  
-0.5 0.05 0  
-0.5 0.025 0  
-0.5 1.3761214e-12 0  
-0.5 -0.025 0  
-0.5 -0.05 0  
-0.5 -0.075 0  
-0.5 -0.1 0  
-0.5 -0.125 0  
-0.5 -0.15 0  
-0.5 -0.175 0  
-0.5 -0.2 0  
-0.5 -0.225 0  
-0.5 -0.25 0  
-0.5 -0.275 0  
-0.5 -0.3 0  
-0.5 -0.325 0  
-0.5 -0.35 0  
-0.5 -0.375 0  
-0.5 -0.4 0  
-0.5 -0.425 0  
-0.5 -0.45 0  
-0.5 -0.475 0  
-0.002115384 -0.00023065208 0  
-0.20714286 -0.20714286 0  
0.20714286 -0.20714286 0  
0.20714286 0.20714286 0  
-0.20714286 0.20714286 0  
-0.28155318 -0.0017231192 0  
0.0017231192 -0.28155318 0  
0.28155318 0.0017231192 0  
-0.0017231192 0.28155318 0  
0.3319978 -0.33098683 0  
0.33098683 0.3319978 0  
-0.3319978 0.33098683 0  
-0.33098683 -0.3319978 0  
-0.14015679 -0.06698606 0  
0.06698606 -0.14015679 0  
0.14015679 0.06698606 0  
-0.06698606 0.14015679 0  
-0.1387125 -0.34573975 0  
0.34573975 -0.1387125 0  
0.1387125 0.34573975 0  
-0.34573975 0.1387125 0  
0.14046866 -0.34602854 0  
0.34602854 0.14046866 0  
-0.14046866 0.34602854 0  
-0.34602854 -0.14046866 0  
-0.05869875 -0.16617337 0  
0.18217777 -0.061504476 0  
0.062312964 0.18362015 0  
-0.18362015 0.062312964 0  
-0.034321424 -0.38563195 0  
0.38563195 -0.034321424 0  
0.034321424 0.38563195 0  
-0.38563195 0.034321424 0  
0.39586002 -0.2428538 0  
0.2428538 0.39586002 0  
-0.39586002 0.2428538 0  
-0.2428538 -0.39586002 0  
0.23688246 -0.38952246 0  
0.38952246 0.23688246 0  
-0.23688246 0.38952246 0  
-0.38952246 -0.23688246 0  
-0.24287231 -0.09948847 0  
0.09948847 -0.24287231 0  
0.24287231 0.09948847 0  
-0.09948847 0.24287231 0  
-0.11560815 -0.24300627 0  
0.24300627 -0.11560815 0  
0.11560815 0.24300627 0  
-0.24300627 0.11560815 0  
-0.40192315 -0.4008276 0  
0.4008276 -0.40192315 0  
0.40192315 0.4008276 0  
-0.4008276 0.40192315 0  
0.06409326 -0.40289903 0  
0.40289903 0.06409326 0  
-0.06409326 0.40289903 0  
-0.40289903 -0.06409326 0  
0.2962961 -0.23982804 0  
0.23982804 0.2962961 0  
-0.2962961 0.23982804 0  
-0.23982804 -0.2962961 0  
-0.28087237 -0.21196799 0  
0.21196799 -0.28087237 0  
0.28087237 0.21196799 0  
-0.21196799 0.28087237 0  
-0.0901279 0.007867504 0  
-0.05002927 -0.07494272 0  
0.0873353 -0.009871756 0  
0.0071518295 0.09216282 0  
-0.14120433 -0.1484696 0  
-0.14581114 0.13960092 0  
0.1458264 -0.14505939 0  
0.13960092 0.14581114 0  
0.41838804 -0.3182741 0  
0.3182741 0.41838804 0  
-0.41838804 0.3182741 0  
-0.3182741 -0.41838804 0  
0.32118136 -0.41712493 0  
0.41712493 0.32118136 0  
-0.32118136 0.41712493 0  
-0.41712493 -0.32118136 0  
-0.19707234 -0.014843048 0  
0.018050108 -0.20183705 0  
0.19707234 0.014843048 0  
-0.014843048 0.19707234 0  
-0.10938372 -0.41847488 0  
0.41847488 -0.10938372 0  
0.10938372 0.41847488 0  
-0.41847488 0.10938372 0  
0.15773043 -0.4267032 0  
0.4267032 0.15773043 0  
-0.15773043 0.4267032 0  
-0.4267032 -0.15773043 0  
-0.3204562 -0.07174808 0  
0.07174808 -0.3204562 0  
0.3204562 0.07174808 0  
-0.07174808 0.3204562 0  
0.02801032 -0.07269879 0  
-0.31817523 0.069836795 0  
-0.069836795 -0.31817523 0  
0.31817523 -0.069836795 0  
0.069836795 0.31817523 0  
0.43106207 -0.17757268 0  
0.17757268 0.43106207 0  
-0.43106207 0.17757268 0  
-0.17757268 -0.43106207 0  
0.0703783 0.071201205 0  
-0.051593844 0.064346604 0  
0.099701226 -0.08333426 0  
0.2863281 -0.17248559 0  
0.17248559 0.2863281 0  
-0.2863281 0.17248559 0  
-0.17248559 -0.2863281 0  
-0.2341888 0.04979648 0  
-0.049194112 -0.231281 0  
0.23358595 -0.04946041 0  
0.04979648 0.2341888 0  
-0.009939441 -0.13691185 0  
-0.26560438 -0.17864102 0  
0.17864102 -0.26560438 0  
0.26560438 0.17864102 0  
-0.17864102 0.26560438 0  
0.013302229 -0.43510666 0  
0.43510666 0.013302229 0  
-0.013302229 0.43510666 0  
-0.43510666 -0.013302229 0  
0.09432827 0.114700764 0  
-0.11539384 0.093188405 0  
-0.3413634 -0.005100272 0  
0.005100272 -0.3413634 0  
0.3413634 0.005100272 0  
-0.005100272 0.3413634 0  
-0.19817708 -0.3508856 0  
0.3508856 -0.19817708 0  
0.19817708 0.3508856 0  
-0.3508856 0.19817708 0  
-0.34100306 -0.27216324 0  
0.27216324 -0.34100306 0  
0.34100306 0.27216324 0  
-0.27216324 0.34100306 0  
-0.20269383 -0.14403741 0  
0.14393912 -0.2028372 0  
0.2026342 0.14393856 0  
-0.14393856 0.2026342 0  
-0.1030633 -0.10524017 0  
-0.4394695 -0.104853734 0  
0.104853734 -0.4394695 0  
0.4394695 0.104853734 0  
-0.104853734 0.4394695 0  
-0.44156647 -0.44156647 0  
0.44156647 -0.44156647 0  
0.44156647 0.44156647 0  
-0.44156647 0.44156647 0  
-0.2683254 -0.44465622 0  
0.44465622 -0.2683254 0  
0.2683254 0.44465622 0  
-0.44465622 0.2683254 0  
0.2654342 -0.4435478 0  
0.4435478 0.2654342 0  
-0.2654342 0.4435478 0  
-0.4435478 -0.2654342 0  
-0.27373606 -0.34534052 0  
0.34534052 -0.27373606 0  
0.27373606 0.34534052 0  
-0.34534052 0.27373606 0  
-0.05307205 -0.4481981 0  
0.4481981 -0.05307205 0  
0.05307205 0.4481981 0  
-0.4481981 0.05307205 0  
-0.35614902 -0.19390328 0  
0.19390328 -0.35614902 0  
0.35614902 0.19390328 0  
-0.19390328 0.35614902 0  
-0.14022674 -0.012452113 0  
0.14171903 0.011271359 0  
-0.01125192 0.14089845 0  
-0.19556868 -0.06932378 0  
0.070511825 -0.19668652 0  
0.19556868 0.06932378 0  
-0.06932378 0.19556868 0  
-0.24951252 -0.039742906 0  
0.04037078 -0.2503529 0  
0.24951252 0.039742906 0  
-0.039742906 0.24951252 0  
0.44100407 -0.36164257 0  
0.36164257 0.44100407 0  
-0.44100407 0.36164257 0  
-0.36164257 -0.44100407 0  
-0.4451273 -0.36589316 0  
0.36589316 -0.4451273 0  
0.4451273 0.36589316 0  
-0.36589316 0.4451273 0  
0.1121834 -0.30242515 0  
0.30242515 0.1121834 0  
-0.1121834 0.30242515 0  
-0.30242515 -0.1121834 0  
-0.115146436 -0.19087775 0  
0.19190264 -0.11309679 0  
0.11520548 0.19263776 0  
-0.19263776 0.11520548 0  
-0.08287991 -0.37025127 0  
0.37025127 -0.08287991 0  
0.08287991 0.37025127 0  
-0.37025127 0.08287991 0  
0.23791528 -0.24381089 0  
0.24381089 0.23791528 0  
-0.23791528 0.24381089 0  
-0.24381089 -0.23791528 0  
-0.44626984 -0.21174923 0  
0.21174923 -0.44626984 0  
0.44626984 0.21174923 0  
-0.21174923 0.44626984 0  
0.35174853 -0.37705234 0  
0.37705234 0.35174853 0  
-0.35174853 0.37705234 0  
-0.37705234 -0.35174853 0  
-0.048605647 -0.023262763 0  
-0.1551113 -0.21381997 0  
0.21381997 -0.1551113 0  
0.1551113 0.21381997 0  
-0.21381997 0.1551113 0  
-0.29403278 -0.30027482 0  
0.30027482 -0.29403278 0  
0.29403278 0.30027482 0  
-0.30027482 0.29403278 0  
0.12173745 -0.390654 0  
0.390654 0.12173745 0  
-0.12173745 0.390654 0  
-0.390654 -0.12173745 0  
-0.12236246 -0.2979882 0  
0.2979882 -0.12236246 0  
0.12236246 0.2979882 0  
-0.2979882 0.12236246 0  
-0.0945969 -0.046371013 0  
0.035276897 -0.027358124 0  
-0.0076714605 0.051946 0  
-0.30809116 -0.17165439 0  
0.17165439 -0.30809116 0  
0.30809116 0.17165439 0  
-0.17165439 0.30809116 0  
-0.16592422 -0.10879113 0  
0.10700909 -0.1687818 0  
0.16864619 0.10664837 0  
-0.10664837 0.16864619 0  
-0.16784625 -0.38069874 0  
0.38069874 -0.16784625 0  
0.16784625 0.38069874 0  
-0.38069874 0.16784625 0  
-0.4563872 -0.05993889 0  
0.05993889 -0.4563872 0  
0.4563872 0.05993889 0  
-0.05993889 0.4563872 0  
0.31103167 -0.37412483 0  
0.37412483 0.31103167 0  
-0.31103167 0.37412483 0  
-0.37412483 -0.31103167 0  
-0.3909646 -0.012754724 0  
0.012754724 -0.3909646 0  
0.3909646 0.012754724 0  
-0.012754724 0.3909646 0  
0.44915667 -0.21679194 0  
0.21679194 0.44915667 0  
-0.44915667 0.21679194 0  
-0.21679194 -0.44915667 0  
0.045831423 0.12033131 0  
-0.12662303 0.045442794 0  
-0.3107799 -0.37355793 0  
0.37355793 -0.3107799 0  
0.3107799 0.37355793 0  
-0.37355793 0.3107799 0  
0.04152367 0.021693805 0  
-0.08040017 -0.2675595 0  
0.26794365 -0.08044455 0  
0.080500565 0.2680441 0  
-0.2680441 0.080500565 0  
-0.13753757 -0.45578164 0  
0.45578164 -0.13753757 0  
0.13753757 0.45578164 0  
-0.45578164 0.13753757 0  
-0.05507968 -0.12135967 0  
0.14172421 -0.09428923 0  
0.2571752 -0.19664502 0  
[...]
POINT_DATA 2173 
SCALARS T float 
LOOKUP_TABLE default 
4.189767849116415e-18 
-3.0726635865518797e-20 
1.0715085256452512e-19 
-2.482357152947488e-19 
1.4066076166415465e-16 
-1.0120608744798591e-16 
-2.7365662060767523e-17 
-2.8162542845234936e-16 
1.9423725457108533e-16 
6.689535851424734e-16 
6.865388276631726e-16 
1.239102654068449e-16 
-5.918137713726178e-16 
6.313679963756966e-16 
-6.119224100827257e-16 
9.49632089122509e-16 
9.071129814819493e-16 
4.906469691223301e-16 
1.3590351259498524e-15 
-1.5347517587538881e-15 
1.0236366083715268e-15 
-8.401917388397836e-17 
-1.4691197571942499e-15 
2.106444269596832e-15 
-1.8144026073171006e-15 
1.4562461635454926e-15 
-2.3697026022898767e-16 
-2.4434179128444024e-18 
3.08303126240787e-17 
6.042147448019153e-18 
-1.7675204743319168e-17 
-7.594808290210693e-17 
-4.2044437015117496e-17 
-5.4874334301312134e-17 
-2.5767617229497625e-17 
6.431070333588417e-18 
1.038054674562138e-17 
-1.4582364512538389e-18 
-3.3535923711865825e-18 
-5.007875668584678e-19 
-2.048190190851326e-18 
-5.723983579978677e-19 
3.673499599724942e-19 
-4.644807834974341e-19 
3.070566404001362e-19 
6.922294533712657e-19 
1.3513041052444738e-19 
-2.6378530844992566e-19 
-5.475401328576553e-19 
-8.300592087697465e-19 
-3.3067309781447633e-18 
3.2447642466034188e-18 
-4.048140196960073e-18 
4.5394267012494895e-18 
-1.2624386685075357e-18 
-9.471769658844391e-19 
1.3299784365456228e-18 
-2.757740884290019e-18 
2.1365505234884403e-18 
-7.806105836653315e-20 
-4.2326560986430335e-19 
-1.0512894077583937e-19 
-2.3501972325157164e-18 
3.434969728992844e-18 
-4.4610992835559844e-18 
3.655225309072448e-18 
1.136919367825624e-17 
-2.4287039709842426e-18 
2.420008225003543e-18 
-1.0042084856578793e-17 
6.7257066595944415e-18 
-1.3770782376131219e-17 
1.3340544008427155e-17 
-9.981779886738691e-18 
-7.89985168914685e-18 
1.1141636269462174e-17 
-1.53954016806694e-17 
-8.558391036838427e-18 
-1.1955049144267167e-17 
3.1873786750985756e-17 
-6.3921637730065946e-18 
-5.392361541634793e-18 
4.4516313742360045e-18 
7.013607919252648e-18 
-3.1765237715286985e-17 
1.506984497385794e-17 
-5.139297914524021e-18 
-2.2244508895023148e-17 
-1.1436005244209272e-17 
6.482516940576073e-18 
3.36663508640012e-18 
7.13844280397656e-18 
-2.041163178099583e-17 
6.931318429663286e-18 
1.2060726491070173e-17 
-2.0465524715579197e-17 
3.466063655521236e-17 
-5.763996820249632e-17 
6.914695781575413e-17 
-3.713816574122268e-17 
-3.4008217862932115e-17 
1.2543705835540886e-17 
-5.663483640630041e-18 
4.640241148435854e-18 
1.9388376104139124e-17 
-4.9190176914287045e-17 
1.010086002397603e-17 
-4.4474827325317296e-17 
3.222796795060033e-17 
-3.7996049058077643e-17 
-3.3644510602615866e-17 
9.87533584710866e-17 
-2.377594549798491e-16 
-4.0236298431480464e-17 
-3.319395578509337e-17 
-8.038328150792504e-17 
-1.0214465194375775e-16 
-1.0476647560622782e-16 
6.697336966292519e-17 
-5.041145432447928e-17 
-2.3228574850685827e-17 
1.613210212216803e-17 
4.7621006637004586e-17 
-8.722300879325638e-17 
1.1662784926109652e-16 
1.4636774557122297e-16 
1.3770292580189238e-16 
-6.50904625488203e-17 
-1.2916112300374708e-16 
-9.573653891090439e-17 
-1.4882292940061704e-16 
1.5163560841824296e-16 
2.7390590537310476e-18 
3.0286956088663095e-16 
3.628739178429142e-17 
1.7904277371930576e-16 
-1.1759751082475014e-16 
-2.862707198161115e-17 
1.6099837224336074e-16 
-1.052526052393074e-16 
1.2454512232634091e-16 
-2.0506354108606009e-16 
3.84428873919425e-16 
-5.419653700475728e-16 
3.868701722994481e-16 
-5.57156967056216e-17 
3.3429825596703303e-16 
-3.187055480784937e-16 
4.818435744705817e-16 
-1.1675471089389274e-16 
-4.534740465474397e-17 
-2.70739319378697e-16 
1.0572888057153798e-15 
-1.638902820033473e-16 
4.078294059916e-16 
-5.1875178624968804e-17 
-1.5381445726758305e-16 
-2.5417191306229295e-16 
-1.4858309888530052e-16 
-1.7167543320876455e-16 
-2.3661658190809167e-6 
0.0009802329114699175 
0.21361906317236315 
-1.1442779861362008e-5 
9.058637477336373e-5 
0.0002066058523593945 
0.018983157965375447 
-4.357385575431201e-6 
-1.9945494155627787e-5 
-1.26159666479096e-5 
-8.042049844806763e-6 
-3.5796471653415936e-5 
0.0003089344403663908 
0.00023477641532182605 
0.11896161019204772 
-3.2987801964576687e-6 
-4.1917336008317224e-5 
-0.00039543788668986433 
-2.6320645294474494e-5 
-1.8437376846687142e-6 
-0.00010197086633552319 
0.027402746083097507 
2.353488149624075e-6 
-3.526250372950541e-5 
-0.00046741650238177335 
0.003182923123514952 
0.0031811183337481933 
1.4327709176749187e-5 
-0.0001703747871334876 
-0.00041699028419818295 
-1.5362019964404781e-6 
2.3449143247550583e-5 
0.00010651805587561 
3.3605825167424724e-6 
1.0778645953457777e-5 
-9.857339050253685e-6 
-0.0003988511309164744 
-0.000166619479112099 
8.632058957242173e-6 
8.842957290249806e-6 
-0.0001870435222504171 
0.0007747799774260935 
0.6226778663976924 
-1.823833370737893e-8 
-8.941760367179269e-5 
0.0007371091446174717 
0.007694411814916615 
2.8009094758204144e-5 
5.420496216278666e-6 
0.00010178308261559442 
-9.991250864822879e-6 
-9.508979134508746e-6 
-4.4938803467852176e-5 
0.0028069992457547773 
-4.2260000952060085e-6 
-5.157939340093033e-5 
-0.0001503740491783427 
0.0011657333864792797 
-1.8108467001084372e-5 
0.00011014135406045343 
1.9720858332421195e-5 
-0.00011592804480340254 
0.07408871721332086 
-9.174398589358033e-6 
-1.5481593202592492e-5 
0.00013106300888779835 
0.0007579239535784889 
3.181374344429234e-5 
1.2146799070557378e-6 
-0.0015220821298011782 
8.76487551580991e-5 
0.27429195253911354 
3.948238252051769e-6 
3.307142585615238e-6 
-5.184429908072561e-6 
8.158249378740406e-6 
-0.0006977763310989807 
3.531639869852352e-5 
-3.0585566061454675e-6 
-2.4902057585436185e-5 
0.0007752179437540271 
-5.489566413513733e-5 
0.07725471618077663 
-4.60253162892759e-6 
5.99377647448727e-5 
0.0005479951536241101 
1.5150722505663898e-6 
6.579816192256729e-6 
-0.00021225197597593277 
0.0004490544256057415 
4.949754705940153e-7 
-2.4739034381452022e-5 
-0.0001187524093638889 
-0.0001385093289775728 
0.041966119308995437 
5.211110867725367e-8 
-2.367971812628385e-5 
0.001606730804505548 
0.00013633753745390437 
0.0011808977058771406 
-1.676192138094129e-5 
2.807276481691399e-5 
-2.700899854642204e-7 
-7.0196228416246705e-6 
-0.0001380317622227006 
0.00032851652985850765 
-2.02185457724012e-5 
-3.6625227843792325e-5 
0.019950548002241497 
0.003696662848829217 
-1.0788903009585185e-7 
3.928107124641354e-6 
-0.0006452124931959224 
5.145575702895237e-5 
0.0070218088579208195 
0.00016125811459324153 
1.795048123937865e-6 
0.00667903752590699 
9.397227064840118e-5 
0.2822824808914191 
-1.868650786734093e-5 
0.00013903714810719166 
-0.0002160489672782185 
4.000380833519352e-6 
-2.5935224740711113e-5 
-0.00023131360646739705 
-1.3204399727203321e-6 
-2.2204106967543617e-5 
-2.3508103065138427e-5 
-0.004044319304812955 
-2.0138558459671987e-6 
2.2697268413952573e-5 
0.0007171280104670379 
-1.8428471431589272e-5 
-1.6069779829739905e-5 
-4.126320738799646e-5 
-0.0003649924986041541 
0.00014144770883399395 
-1.2887178944796837e-5 
-6.499872888626073e-6 
-0.0018851258210706326 
0.70984760430594 
-1.1137382073615805e-5 
5.2702059041836556e-5 
0.0010888354444849278 
0.00023160417500371367 
0.000373165850306479 
5.700382772191782e-7 
-5.4947169358714396e-6 
7.509246498750098e-5 
-7.488084848786929e-7 
-6.49521457396652e-7 
4.265659040736856e-5 
-8.29951270335613e-5 
1.3948871446731114e-6 
-4.23604593604229e-6 
0.00012502136541011095 
4.611778004002468e-5 
6.549935741164862e-6 
-5.421542097940521e-5 
-0.00018575616842421934 
-0.00031619421448906903 
-5.975916722539506e-5 
-5.396909765937823e-6 
6.40833465372534e-5 
0.00035354603848724404 
8.68799034528015e-7 
-3.078292531390558e-5 
-0.00020524357471824782 
0.0008267357143981772 
0.004579916281013592 
-4.2705985285350715e-6 
2.5488026142304474e-5 
-0.0002455099058926878 
-4.895609436813324e-6 
8.94347021127978e-5 
0.0002786636081276783 
0.40929273452488873 
-6.953113263868883e-6 
2.1427640857632657e-5 
-0.00019967463672573895 
0.13302694016115932 
-2.6637693043297853e-6 
3.886275073601642e-5 
-3.389287187535147e-6 
-1.5572937060347107e-6 
1.7789905748941335e-5 
0.0005117621217893093 
0.0005141362732868898 
-6.649972090021856e-6 
-2.150837935217734e-6 
7.707374512327397e-5 
0.1640123524526985 
-1.0489503597415614e-5 
3.053865802340757e-5 
0.0008229934058241468 
-0.004418731775543571 
0.04439269640983512 
2.8182650681464576e-6 
-7.189668441937471e-5 
-0.00023185764407227473 
-1.013895200530266e-6 
9.134114008285506e-6 
4.487785706242579e-6 
0.05613131405528948 
3.4054519930057307e-6 
3.144721149701757e-5 
-0.0011574190071951523 
3.524324856266344e-5 
0.00012732179383856274 
9.151191162534134e-7 
-3.2404182202673545e-5 
2.6677495959309387e-5 
5.060722442905953e-6 
6.314291379920965e-5 
-0.0002938179604952284 
-4.7905641853448026e-5 
-0.003630706551745908 
0.09227431073440917 
-6.824654904830611e-6 
0.00011877583531109225 
0.00015055917136058475 
0.00021468659864744359 
-9.764063086695466e-7 
2.196445793708861e-5 
0.0035602766639213188 
1.1297317912914424e-6 
2.1059147725964524e-5 
0.0006012787636107032 
-0.0001073938325702063 
0.0001813808564528241 
1.1970091847163785e-5 
-0.00013006198279730158 
0.00037920562210468686 
6.66020392816252e-5 
-2.8381815822149117e-8 
0.0005823372947518185 
0.09114314452875026 
-9.574951415129441e-6 
5.003741272149934e-5 
0.000813011968229232 
0.47002092806785795 
1.7472116014198887e-7 
3.8101594521914708e-6 
0.0008799332501865954 
-4.070110281582396e-6 
-6.0062467705360476e-6 
-4.937228177312961e-5 
-4.641278052285353e-5 
0.0005002643076192698 
-1.5738364728187635e-6 
1.997672194434479e-5 
-7.384727083325835e-5 
5.290222527635263e-6 
-4.168211721301502e-6 
0.00041988226510107494 
7.099241634138598e-5 
-0.00256708223731147 
-4.5339895598612504e-6 
-2.1097176851758885e-6 
-2.3519276029815374e-6 
1.4082719840399743e-5 
3.1177281913206426e-5 
0.001277733967803191 
-1.1741943900252638e-5 
-0.00021361494655605486 
-0.0002859207295121437 
-1.3162821210217512e-5 
-2.64313501150042e-6 
3.2559395712019106e-5 
3.4511718500492795e-7 
0.0025940199328326704 
0.00019301190984424832 
3.19815483193595e-5 
4.853447360305035e-5 
0.0003473079822895568 
-5.28809816306679e-7 
2.0421002437091764e-5 
-4.042329390073372e-5 
0.0029372604997359047 
0.040212546713523305 
0.026037294406098255 
-1.2454709126344011e-5 
0.00013625234386655013 
-0.0002477512318665319 
0.001341366557356425 
6.61773621447373e-5 
-0.0007578134788193454 
1.0589509260916428e-5 
6.7948282332087716e-6 
1.3281982633678062e-5 
4.4621160998704134e-7 
6.0772228367525865e-6 
-2.9902987477402883e-5 
-0.00016793599065099935 
-8.105593193308756e-6 
6.436100436873428e-6 
0.00011536071703132541 
-0.00010188786270705976 
-7.660501277632773e-7 
2.5698804303071058e-5 
0.0002184217207234183 
0.18296071011618592 
7.866531953182655e-8 
-4.066116150083891e-5 
-7.787550372564873e-5 
0.12470783875561958 
0.0006099438375745424 
0.009528138697262196 
7.271142989696048e-5 
-3.691440850643707e-5 
0.00010483308713566143 
-0.000186094201359493 
0.013164875461805035 
-8.12160955602199e-6 
3.157242634835827e-5 
-0.0002050456971160502 
0.00016761270541293188 
-8.718947281283066e-6 
1.2668723730848347e-5 
0.02184562051598782 
0.06794288214704096 
0.0038323256913711207 
9.391085713339995e-7 
4.082612935597878e-5 
0.0002465330359240044 
0.00024756515817258245 
-8.053776326190347e-6 
-3.2506498725383105e-6 
-1.2554732329964024e-5 
-7.31784414334378e-5 
-0.0001770833468531011 
-0.0023659429497660932 
-2.5715046636005315e-6 
-1.0231062990552692e-5 
-0.0007580992395718039 
2.159333420954008e-6 
-1.7540260658957256e-5 
1.944669685629752e-5 
0.0011717235418567638 
-2.623867602009687e-6 
-1.658817469413482e-5 
0.00027973348495120755 
0.0004870885258285944 
0.02339334252853866 
-6.018405625123046e-6 
4.8687575896053945e-5 
0.0015137033393125391 
-5.526197874654491e-7 
0.34556060427199553 
1.2605176028994226e-5 
-6.216968372500881e-5 
2.0162241538019339e-7 
-3.072078877249567e-5 
-4.022298864881369e-5 
-0.001461611482863932 
2.6095381663879206e-7 
-6.0449268358129835e-6 
-2.8047066741964427e-5 
-0.0012107454492895475 
1.9689176841836047e-6 
2.2260804292570103e-5 
-0.0001245897567322001 
-0.00041936664785808967 
-0.00032871098008404096 
-4.6939519603069585e-6 
-1.8471042117577516e-5 
-3.5601767609054366e-7 
1.2949998444236596e-5 
6.871039377433398e-5 
-2.520292836049969e-5 
-8.91361995710255e-7 
1.9232589378687176e-5 
5.177757176989871e-5 
-0.00021199492802108773 
-0.0004506138175095417 
0.0004889933308411653 
-1.717135147749062e-5 
3.4508579860434404e-5 
-0.0001927135790083431 
1.438156383821674e-6 
-8.52723011252602e-6 
9.9696086047276e-6 
0.00014035882657986815 
0.00010892801269520228 
0.025126600176253237 
5.39113682906712e-7 
1.2725558046372688e-5 
-5.14950364398336e-5 
-0.0013218151103911945 
-1.6404901151820691e-6 
-2.2512288358816013e-5 
0.0022045883068149623 
0.0013228316828397158 
0.21926571329744698 
-5.381241156952324e-6 
5.432351462013343e-5 
-1.777863952008887e-6 
8.316902898472457e-6 
-5.5145766264417133e-5 
0.000804035157539989 
8.014847391788881e-6 
-0.002185532270793499 
0.6974472881057646 
-1.2402361061780137e-5 
9.073406912412747e-6 
0.0009600732760798099 
5.269636351577996e-7 
-9.932678164917345e-8 
-0.00015522185013027456 
0.014703286083428585 
3.093679272546145e-5 
7.524752568858279e-5 
0.0022934172114737724 
-2.7144090727491515e-5 
-1.7037775693135646e-5 
0.007868199273188952 
-7.77606026293959e-6 
3.14524962987069e-5 
-0.0009034104042008267 
-8.440405796385599e-5 
-0.0018761335056574641 
-1.1749502151282013e-5 
-5.699036179897848e-6 
-0.0008132482243114225 
0.0053994295318986335 
5.453591304218312e-6 
-5.416984192016434e-5 
0.0024109402608625177 
0.004213314651405634 
5.452011877767466e-6 
0.00011596232750423544 
2.6413638724447627e-6 
8.80482678631972e-6 
9.545760730275021e-5 
0.0009616053030767376 
0.0005743234951691763 
7.677103606966496e-7 
-2.788595231632146e-6 
-2.0288783177050077e-6 
5.575079138038431e-5 
6.199808070885401e-5 
-7.135361544315936e-6 
-9.648829347978464e-5 
0.0003142766866769058 
0.0005979842398362229 
1.4479824311967448e-5 
4.7972751463856935e-5 
2.1726876163531716e-5 
8.672797880029208e-5 
-2.5488186268892614e-5 
-1.911685314611215e-6 
3.13668637733611e-5 
-0.0003927349824110786 
8.529572896682724e-5 
1.491522333830059e-7 
8.247931763282054e-6 
5.728082802398884e-5 
7.250850545550928e-5 
0.5096783457034507 
-3.5083714116382595e-6 
2.8508067155146873e-5 
-0.0003827160784756253 
0.00011456532207169283 
4.884108998209544e-6 
6.876686330362165e-5 
0.014515210336748484 
-0.0011489932342872112 
1.4988742769582848e-6 
1.3658394369058667e-5 
2.467458896423976e-5 
0.012380395976686392 
-6.564507830795894e-5 
-5.2379851906870195e-6 
-3.168293075612157e-6 
8.690710056327024e-5 
0.47462165443854964 
8.658069444174167e-6 
-5.745288150427586e-5 
-0.0005705189416054039 
-0.00029737859657023234 
-2.679200076970944e-6 
-4.5193973134852566e-5 
0.00017077813067675204 
-0.00011890698301709753 
0.004528443083351784 
0.00021551057127323843 
0.1951236852232062 
0.07243933797298657 
0.1488195273137362 
-2.130640225337637e-6 
1.7440188982510727e-5 
-1.0131299500013562e-5 
-5.570928244181709e-5 
-0.00012459005382953875 
5.745035287355288e-5 
0.0053578534691117305 
-0.0003090615991628458 
-0.0013466848610057828 
4.8829093926639784e-5 
0.0006106144093759651 
0.0007909157804314662 
1.7893256224033154e-5 
-2.9202375531859643e-5 
1.2929762262979588e-6 
-7.650998028484003e-5 
-0.00019558704514422828 
0.00022292828273952795 
-0.00311269027715727 
0.004049850107298534 
2.551891804550189e-5 
-7.87198360017949e-5 
0.3289490209365323 
0.126402299804462 
-1.1668498670681977e-6 
-7.172503641638595e-6 
-5.915374864379131e-5 
1.261750197748283e-5 
-0.00042351150985046995 
-0.002105319669953343 
0.0010820231174146053 
0.0038064925658131523 
-7.897177944857145e-6 
-6.514766557845389e-6 
-2.3583599236565223e-5 
1.029416278393217e-5 
2.682244668541563e-5 
-8.873307746411769e-5 
-0.0010644584379648529 
0.00018737638825810227 
0.0011360935913462095 
0.00017594503846774182 
0.00036501273205479315 
0.00046166835386187365 
-0.0005512612218781705 
-1.1423582070030228e-6 
5.005675290495034e-7 
1.8720893638987836e-6 
4.585985828786441e-6 
2.9361292460015722e-6 
-1.3557704443190105e-5 
-3.074765461253756e-5 
7.664436166522305e-5 
-3.867417083505003e-5 
-0.0002443048604406301 
0.00011434996675215938 
2.9137141562701635e-6 
2.2406017013212784e-7 
-1.6034978161346773e-6 
7.589855424333657e-6 
-5.163178926323538e-7 
6.844810273790544e-5 
0.00044561528798401544 
-0.00017846959146299702 
-5.781905691083222e-7 
1.3026410121386484e-7 
-1.6591494178701274e-5 
8.38154882805674e-6 
4.9594238281192425e-5 
6.754291737552522e-5 
0.0003481118535897076 
4.0004821711822654e-5 
-0.0001999756732621348 
0.003249082912284394 
0.0028744094011609886 
0.009918452867501686 
-4.869244167843765e-6 
2.387420173101697e-6 
1.9897240450370154e-6 
-1.259509605841164e-5 
-1.3989850741227785e-5 
7.4188990820412785e-6 
1.4114066497639346e-6 
4.323657569555748e-7 
-1.6827323430685914e-6 
2.6227399359849257e-6 
-3.747079010331315e-6 
1.2375726486130864e-6 
-6.441915789576754e-5 
-5.426250490763744e-5 
-6.0765841906187146e-5 
-0.00024031015695213288 
-6.603145476959654e-5 
0.00011489621690303195 
-9.878022831962582e-6 
1.2642674274181884e-5 
6.1122329877758144e-6 
2.5679714528173733e-6 
-9.325680879713145e-6 
3.6597795746583334e-6 
1.808107857155757e-5 
-4.0795516491881346e-5 
0.00011978928927611229 
-0.0005011215970722942 
0.0005813149644081132 
0.0001617124154198536 
0.0002044047323413759 
-1.56211291930236e-6 
2.1948704602215384e-6 
-8.109195448784088e-5 
3.3966859739119096e-5 
-5.209045934694682e-6 
-3.859482176881576e-5 
6.297870155004879e-5 
0.0001237978029917322 
5.4400653620524784e-5 
4.595945586185498e-6 
7.188996324276736e-6 
3.9326960497271205e-5 
2.2285660404021847e-5 
-0.00029159565868096634 
-3.588881335766908e-5 
6.982051511200933e-6 
-9.653610052549298e-5 
-0.0001869360228260686 
-9.812414208089529e-5 
-0.0003546687205504344 
-5.671397359331716e-6 
-8.458338189356942e-6 
1.634662407188381e-5 
-1.1241328517002763e-5 
6.480438629844462e-5 
-8.294758682954949e-5 
-0.00013639134889508966 
-0.00021093531864642526 
-1.0581476898556004e-7 
-8.99646393298353e-7 
6.909612121556207e-6 
-9.08021896047201e-7 
2.955674143577046e-5 
-0.00010523792146029978 
0.00022961352591594313 
7.106880006622425e-5 
0.0006680647678700703 
0.0023740509647491863 
3.487859008411426e-6 
-8.149503313796743e-7 
4.266786921365868e-6 
-1.4103065996424292e-6 
-2.879242995498222e-5 
0.0005430647146428693 
4.034469469923865e-5 
-0.0001713640886892294 
7.351575747944769e-5 
0.00048617326290839667 
-1.1517818872258121e-5 
1.5115234704350996e-5 
-6.212592763237275e-7 
6.917062700658363e-5 
7.38663782743183e-5 
-0.00010234307901963745 
-1.6428118298247093e-5 
7.474681295371462e-6 
-0.0009553069886551629 
0.0002958418755203268 
1.6211172423451008e-6 
-1.9021754976938213e-6 
6.265462074501924e-6 
-8.163852488007077e-7 
-9.015440926971579e-5 
0.00011166768859026082 
-0.00017662692836323322 
-0.0006009698778940614 
0.00039267963098186284 
1.3974855716998593e-6 
-2.709943980114609e-6 
-2.797712551096824e-6 
2.685114457075152e-5 
-3.154741046636532e-5 
2.8593347289664737e-5 
0.0003193068700613603 
-0.0006515849984098999 
7.608501325223453e-5 
-6.2095829592128496e-6 
1.7477935408831785e-5 
-1.1998519214234304e-6 
8.023517719264299e-6 
-9.370930098269492e-6 
-1.380545545567417e-7 
-4.5451792724542505e-6 
-2.745122423664008e-5 
6.823990794856274e-5 
-3.5159077638460175e-5 
-0.00047611981976394016 
-0.0001867139605723227 
-0.00011814363615708953 
0.00018400414726814409 
-5.8774590829612086e-5 
0.0001047557954982739 
-9.537519243502489e-6 
5.230172538488311e-7 
7.604801005266679e-6 
-2.163773582103014e-5 
-0.00042811353145456914 
-0.0009481450157149009 
0.001753281993985113 
1.3051504146584206e-5 
4.662036888015366e-6 
-1.688904762730301e-5 
-4.5167105286611824e-6 