# vtk DataFile Version 3.0 
Unstructured Grid 
ASCII 
DATASET UNSTRUCTURED_GRID
POINTS 2173 float 
-0.5 -0.5 0  
0.5 -0.5 0  
0.5 0.5 0  
-0.5 0.5 0  
-0.475 -0.5 0  
-0.45 -0.5 0  
-0.425 -0.5 0  
-0.4 -0.5 0  
-0.375 -0.5 0  
-0.35 -0.5 0  
-0.325 -0.5 0  
-0.3 -0.5 0  
-0.275 -0.5 0  
-0.25 -0.5 0  
-0.225 -0.5 0  
-0.2 -0.5 0  
-0.175 -0.5 0  
-0.15 -0.5 0  
-0.125 -0.5 0  
-0.1 -0.5 0  
-0.075 -0.5 0  
-0.05 -0.5 0  
-0.025 -0.5 0  
-1.3761214e-12 -0.5 0  
0.025 -0.5 0  
0.05 -0.5 0  
0.075 -0.5 0  
0.1 -0.5 0  
0.125 -0.5 0  
0.15 -0.5 0  
0.175 -0.5 0  
0.2 -0.5 0  
0.225 -0.5 0  
0.25 -0.5 0  
0.275 -0.5 0  
0.3 -0.5 0  
0.325 -0.5 0  
0.35 -0.5 0  
0.375 -0.5 0  
0.4 -0.5 0  
0.425 -0.5 0  
0.45 -0.5 0  
0.475 -0.5 0  
0.5 -0.475 0  
0.5 -0.45 0  
0.5 -0.425 0  
0.5 -0.4 0  
0.5 -0.375 0  
0.5 -0.35 0  
0.5 -0.325 0  
0.5 -0.3 0  
0.5 -0.275 0  
0.5 -0.25 0  
0.5 -0.225 0  
0.5 -0.2 0  
0.5 -0.175 0  
0.5 -0.15 0  
0.5 -0.125 0  
0.5 -0.1 0  
0.5 -0.075 0  
0.5 -0.05 0  
0.5 -0.025 0  
0.5 -1.3761214e-12 0  
0.5 0.025 0  
0.5 0.05 0  
0.5 0.075 0  
0.5 0.1 0  
0.5 0.125 0  
0.5 0.15 0  
0.5 0.175 0  
0.5 0.2 0  
0.5 0.225 0  
0.5 0.25 0  
0.5 0.275 0  
0.5 0.3 0  
0.5 0.325 0  
0.5 0.35 0  
0.5 0.375 0  
0.5 0.4 0  
0.5 0.425 0  
0.5 0.45 0  
0.5 0.475 0  
0.475 0.5 0  
0.45 0.5 0  
0.425 0.5 0  
0.4 0.5 0  
0.375 0.5 0  
0.35 0.5 0  
0.325 0.5 0  
0.3 0.5 0  
0.275 0.5 0  
0.25 0.5 0  
0.225 0.5 0  
0.2 0.5 0  
0.175 0.5 0  
0.15 0.5 0  
0.125 0.5 0  
0.1 0.5 0  
0.075 0.5 0  
0.05 0.5 0  
0.025 0.5 0  
1.3761214e-12 0.5 0  
-0.025 0.5 0  
-0.05 0.5 0  
-0.075 0.5 0  
-0.1 0.5 0  
-0.125 0.5 0  
-0.15 0.5 0  
-0.175 0.5 0  
-0.2 0.5 0  
-0.225 0.5 0  
-0.25 0.5 0  
-0.275 0.5 0  
-0.3 0.5 0  
-0.325 0.5 0  
-0.35 0.5 0  
-0.375 0.5 0  
-0.4 0.5 0  
-0.425 0.5 0  
-0.45 0.5 0  
-0.475 0.5 0  
-0.5 0.475 0  
-0.5 0.45 0  
-0.5 0.425 0  
-0.5 0.4 0  
-0.5 0.375 0  
-0.5 0.35 0  
-0.5 0.325 0  
-0.5 0.3 0  
-0.5 0.275 0  
-0.5 0.25 0  
-0.5 0.225 0  
-0.5 0.2 0  
-0.5 0.175 0  
-0.5 0.15 0  
-0.5 0.125 0  
-0.5 0.1 0  
-0.5 0.075 0  
-0.5 0.05 0  
-0.5 0.025 0  
-0.5 1.3761214e-12 0  
-0.5 -0.025 0  
-0.5 -0.05 0  
-0.5 -0.075 0  
-0.5 -0.1 0  
-0.5 -0.125 0  
-0.5 -0.15 0  
-0.5 -0.175 0  
-0.5 -0.2 0  
-0.5 -0.225 0  
-0.5 -0.25 0  
-0.5 -0.275 0  
-0.5 -0.3 0  
-0.5 -0.325 0  
-0.5 -0.35 0  
-0.5 -0.375 0  
-0.5 -0.4 0  
-0.5 -0.425 0  
-0.5 -0.45 0  
-0.5 -0.475 0  
-0.002115384 -0.00023065208 0  
-0.20714286 -0.20714286 0  
0.20714286 -0.20714286 0  
0.20714286 0.20714286 0  
-0.20714286 0.20714286 0  
-0.28155318 -0.0017231192 0  
0.0017231192 -0.28155318 0  
0.28155318 0.0017231192 0  
-0.0017231192 0.28155318 0  
0.3319978 -0.33098683 0  
0.33098683 0.3319978 0  
-0.3319978 0.33098683 0  
-0.33098683 -0.3319978 0  
-0.14015679 -0.06698606 0  
0.06698606 -0.14015679 0  
0.14015679 0.06698606 0  
-0.06698606 0.14015679 0  
-0.1387125 -0.34573975 0  
0.34573975 -0.1387125 0  
0.1387125 0.34573975 0  
-0.34573975 0.1387125 0  
0.14046866 -0.34602854 0  
0.34602854 0.14046866 0  
-0.14046866 0.34602854 0  
-0.34602854 -0.14046866 0  
-0.05869875 -0.16617337 0  
0.18217777 -0.061504476 0  
0.062312964 0.18362015 0  
-0.18362015 0.062312964 0  
-0.034321424 -0.38563195 0  
0.38563195 -0.034321424 0  
0.034321424 0.38563195 0  
-0.38563195 0.034321424 0  
0.39586002 -0.2428538 0  
0.2428538 0.39586002 0  
-0.39586002 0.2428538 0  
-0.2428538 -0.39586002 0  
0.23688246 -0.38952246 0  
0.38952246 0.23688246 0  
-0.23688246 0.38952246 0  
-0.38952246 -0.23688246 0  
-0.24287231 -0.09948847 0  
0.09948847 -0.24287231 0  
0.24287231 0.09948847 0  
-0.09948847 0.24287231 0  
-0.11560815 -0.24300627 0  
0.24300627 -0.11560815 0  
0.11560815 0.24300627 0  
-0.24300627 0.11560815 0  
-0.40192315 -0.4008276 0  
0.4008276 -0.40192315 0  
0.40192315 0.4008276 0  
-0.4008276 0.40192315 0  
0.06409326 -0.40289903 0  
0.40289903 0.06409326 0  
-0.06409326 0.40289903 0  
-0.40289903 -0.06409326 0  
0.2962961 -0.23982804 0  
0.23982804 0.2962961 0  
-0.2962961 0.23982804 0  
-0.23982804 -0.2962961 0  
-0.28087237 -0.21196799 0  
0.21196799 -0.28087237 0  
0.28087237 0.21196799 0  
-0.21196799 0.28087237 0  
-0.0901279 0.007867504 0  
-0.05002927 -0.07494272 0  
0.0873353 -0.009871756 0  
0.0071518295 0.09216282 0  
-0.14120433 -0.1484696 0  
-0.14581114 0.13960092 0  
0.1458264 -0.14505939 0  
0.13960092 0.14581114 0  
0.41838804 -0.3182741 0  
0.3182741 0.41838804 0  
-0.41838804 0.3182741 0  
-0.3182741 -0.41838804 0  
0.32118136 -0.41712493 0  
0.41712493 0.32118136 0  
-0.32118136 0.41712493 0  
-0.41712493 -0.32118136 0  
-0.19707234 -0.014843048 0  
0.018050108 -0.20183705 0  
0.19707234 0.014843048 0  
-0.014843048 0.19707234 0  
-0.10938372 -0.41847488 0  
0.41847488 -0.10938372 0  
0.10938372 0.41847488 0  
-0.41847488 0.10938372 0  
0.15773043 -0.4267032 0  
0.4267032 0.15773043 0  
-0.15773043 0.4267032 0  
-0.4267032 -0.15773043 0  
-0.3204562 -0.07174808 0  
0.07174808 -0.3204562 0  
0.3204562 0.07174808 0  
-0.07174808 0.3204562 0  
0.02801032 -0.07269879 0  
-0.31817523 0.069836795 0  
-0.069836795 -0.31817523 0  
0.31817523 -0.069836795 0  
0.069836795 0.31817523 0  
0.43106207 -0.17757268 0  
0.17757268 0.43106207 0  
-0.43106207 0.17757268 0  
-0.17757268 -0.43106207 0  
0.0703783 0.071201205 0  
-0.051593844 0.064346604 0  
0.099701226 -0.08333426 0  
0.2863281 -0.17248559 0  
0.17248559 0.2863281 0  
-0.2863281 0.17248559 0  
-0.17248559 -0.2863281 0  
-0.2341888 0.04979648 0  
-0.049194112 -0.231281 0  
0.23358595 -0.04946041 0  
0.04979648 0.2341888 0  
-0.009939441 -0.13691185 0  
-0.26560438 -0.17864102 0  
0.17864102 -0.26560438 0  
0.26560438 0.17864102 0  
-0.17864102 0.26560438 0  
0.013302229 -0.43510666 0  
0.43510666 0.013302229 0  
-0.013302229 0.43510666 0  
-0.43510666 -0.013302229 0  
0.09432827 0.114700764 0  
-0.11539384 0.093188405 0  
-0.3413634 -0.005100272 0  
0.005100272 -0.3413634 0  
0.3413634 0.005100272 0  
-0.005100272 0.3413634 0  
-0.19817708 -0.3508856 0  
0.3508856 -0.19817708 0  
0.19817708 0.3508856 0  
-0.3508856 0.19817708 0  
-0.34100306 -0.27216324 0  
0.27216324 -0.34100306 0  
0.34100306 0.27216324 0  
-0.27216324 0.34100306 0  
-0.20269383 -0.14403741 0  
0.14393912 -0.2028372 0  
0.2026342 0.14393856 0  
-0.14393856 0.2026342 0  
-0.1030633 -0.10524017 0  
-0.4394695 -0.104853734 0  
0.104853734 -0.4394695 0  
0.4394695 0.104853734 0  
-0.104853734 0.4394695 0  
-0.44156647 -0.44156647 0  
0.44156647 -0.44156647 0  
0.44156647 0.44156647 0  
-0.44156647 0.44156647 0  
-0.2683254 -0.44465622 0  
0.44465622 -0.2683254 0  
0.2683254 0.44465622 0  
-0.44465622 0.2683254 0  
0.2654342 -0.4435478 0  
0.4435478 0.2654342 0  
-0.2654342 0.4435478 0  
-0.4435478 -0.2654342 0  
-0.27373606 -0.34534052 0  
0.34534052 -0.27373606 0  
0.27373606 0.34534052 0  
-0.34534052 0.27373606 0  
-0.05307205 -0.4481981 0  
0.4481981 -0.05307205 0  
0.05307205 0.4481981 0  
-0.4481981 0.05307205 0  
-0.35614902 -0.19390328 0  
0.19390328 -0.35614902 0  
0.35614902 0.19390328 0  
-0.19390328 0.35614902 0  
-0.14022674 -0.012452113 0  
0.14171903 0.011271359 0  
-0.01125192 0.14089845 0  
-0.19556868 -0.06932378 0  
0.070511825 -0.19668652 0  
0.19556868 0.06932378 0  
-0.06932378 0.19556868 0  
-0.24951252 -0.039742906 0  
0.04037078 -0.2503529 0  
0.24951252 0.039742906 0  
-0.039742906 0.24951252 0  
0.44100407 -0.36164257 0  
0.36164257 0.44100407 0  
-0.44100407 0.36164257 0  
-0.36164257 -0.44100407 0  
-0.4451273 -0.36589316 0  
0.36589316 -0.4451273 0  
0.4451273 0.36589316 0  
-0.36589316 0.4451273 0  
0.1121834 -0.30242515 0  
0.30242515 0.1121834 0  
-0.1121834 0.30242515 0  
-0.30242515 -0.1121834 0  
-0.115146436 -0.19087775 0  
0.19190264 -0.11309679 0  
0.11520548 0.19263776 0  
-0.19263776 0.11520548 0  
-0.08287991 -0.37025127 0  
0.37025127 -0.08287991 0  
0.08287991 0.37025127 0  
-0.37025127 0.08287991 0  
0.23791528 -0.24381089 0  
0.24381089 0.23791528 0  
-0.23791528 0.24381089 0  
-0.24381089 -0.23791528 0  
-0.44626984 -0.21174923 0  
0.21174923 -0.44626984 0  
0.44626984 0.21174923 0  
-0.21174923 0.44626984 0  
0.35174853 -0.37705234 0  
0.37705234 0.35174853 0  
-0.35174853 0.37705234 0  
-0.37705234 -0.35174853 0  
-0.048605647 -0.023262763 0  
-0.1551113 -0.21381997 0  
0.21381997 -0.1551113 0  
0.1551113 0.21381997 0  
-0.21381997 0.1551113 0  
-0.29403278 -0.30027482 0  
0.30027482 -0.29403278 0  
0.29403278 0.30027482 0  
-0.30027482 0.29403278 0  
0.12173745 -0.390654 0  
0.390654 0.12173745 0  
-0.12173745 0.390654 0  
-0.390654 -0.12173745 0  
-0.12236246 -0.2979882 0  
0.2979882 -0.12236246 0  
0.12236246 0.2979882 0  
-0.2979882 0.12236246 0  
-0.0945969 -0.046371013 0  
0.035276897 -0.027358124 0  
-0.0076714605 0.051946 0  
-0.30809116 -0.17165439 0  
0.17165439 -0.30809116 0  
0.30809116 0.17165439 0  
-0.17165439 0.30809116 0  
-0.16592422 -0.10879113 0  
0.10700909 -0.1687818 0  
0.16864619 0.10664837 0  
-0.10664837 0.16864619 0  
-0.16784625 -0.38069874 0  
0.38069874 -0.16784625 0  
0.16784625 0.38069874 0  
-0.38069874 0.16784625 0  
-0.4563872 -0.05993889 0  
0.05993889 -0.4563872 0  
0.4563872 0.05993889 0  
-0.05993889 0.4563872 0  
0.31103167 -0.37412483 0  
0.37412483 0.31103167 0  
-0.31103167 0.37412483 0  
-0.37412483 -0.31103167 0  
-0.3909646 -0.012754724 0  
0.012754724 -0.3909646 0  
0.3909646 0.012754724 0  
-0.012754724 0.3909646 0  
0.44915667 -0.21679194 0  
0.21679194 0.44915667 0  
-0.44915667 0.21679194 0  
-0.21679194 -0.44915667 0  
0.045831423 0.12033131 0  
-0.12662303 0.045442794 0  
-0.3107799 -0.37355793 0  
0.37355793 -0.3107799 0  
0.3107799 0.37355793 0  
-0.37355793 0.3107799 0  
0.04152367 0.021693805 0  
-0.08040017 -0.2675595 0  
0.26794365 -0.08044455 0  
0.080500565 0.2680441 0  
-0.2680441 0.080500565 0  
-0.13753757 -0.45578164 0  
0.45578164 -0.13753757 0  
0.13753757 0.45578164 0  
-0.45578164 0.13753757 0  
-0.05507968 -0.12135967 0  
0.14172421 -0.09428923 0  
0.2571752 -0.19664502 0  
[...]
POINT_DATA 2173 
SCALARS T float 
LOOKUP_TABLE default 
2.3113837208771957e-18 
1.7794248707931747e-17 
3.4342342056456786e-20 
1.5872957337881052e-19 
1.9768909734781936e-18 
-4.36209300088999e-17 
1.6629185107448279e-16 
-1.4609222359968481e-16 
4.273650000269005e-17 
2.4209678901283407e-16 
2.831774958076017e-16 
3.649896134191405e-16 
8.948697950918932e-17 
1.8242571600628268e-16 
-9.243458654064212e-17 
-1.0249656537813142e-16 
-3.160850873316253e-17 
-4.8047275669889714e-17 
-1.7569148135386035e-16 
4.292302937521921e-16 
-8.331677222086018e-16 
2.798297024072579e-17 
9.173564566525747e-16 
-6.271494556352267e-16 
3.4537528208180917e-16 
-1.040069718213127e-16 
-6.678886416653933e-16 
1.507999656606828e-15 
-6.545545225601592e-16 
4.815181718105117e-16 
-1.5710589260678391e-16 
2.198684932124282e-17 
1.0390562396606278e-15 
-3.726879316861e-16 
-4.246269394694542e-16 
-1.0985921377983377e-15 
4.584452210815095e-16 
-1.3525050288035389e-15 
-2.9953181773144615e-16 
6.864732302183425e-17 
-2.6513796353310346e-16 
-2.455893553923355e-17 
-9.483060962754411e-17 
1.417085253859538e-16 
-4.232859545801927e-17 
5.14870046970599e-16 
-4.1344224694627694e-16 
-4.222123635892958e-16 
-3.1756930617137663e-16 
-2.4646410188792836e-16 
9.252890094466773e-16 
6.971241551809483e-16 
1.9903996926199255e-16 
4.97858879246507e-17 
-1.5499377549013051e-16 
-3.206152681922044e-16 
1.3913618100157417e-16 
-5.088283949415943e-18 
1.789379508601165e-16 
-2.761241064809639e-16 
-1.3933280213200105e-16 
6.114907812859847e-16 
-1.0527017056537713e-15 
8.940980114939314e-16 
-6.238721071485599e-16 
7.429329439162981e-17 
-5.633324093132391e-17 
-1.7280801470143722e-17 
-4.355502773561583e-17 
-9.565851790564372e-18 
-6.602255497679015e-18 
-4.47355831780284e-18 
4.966800412533454e-18 
2.7652901394762946e-18 
-1.0122690256193982e-18 
2.178084142501222e-18 
1.7897617670156424e-18 
1.5495053904233549e-18 
1.3570609705506721e-18 
-2.728458364222076e-18 
5.6497377800071575e-19 
5.511292872071888e-19 
-4.2104125547094976e-19 
-1.372600477522373e-18 
3.194726598263982e-18 
-4.267797557673698e-18 
-2.340931354750712e-18 
-1.207916572649914e-18 
1.162812153145853e-18 
-7.732893476863142e-18 
-7.260866707196293e-18 
2.66091875630878e-18 
-3.374637853116014e-18 
-1.9917678505075823e-18 
5.907607350234832e-19 
-4.100058196507181e-18 
7.82954148643341e-19 
-1.238554704156561e-18 
-1.360694776545713e-18 
2.459406090407077e-18 
-2.2670984792167723e-18 
2.756710597775006e-18 
-2.3016794360487503e-18 
2.1857819418482273e-18 
-1.471364630511084e-18 
-1.4851996556507512e-17 
2.4116079683151444e-19 
-1.9475415407327315e-18 
-2.339204190889303e-18 
7.46233443374503e-19 
-6.660016065182271e-18 
6.2253675097738985e-18 
-1.811131212293747e-18 
1.2717291202485348e-17 
-1.3139627559532826e-17 
5.5707872309646355e-18 
-9.713892779864892e-18 
-8.095180480570095e-18 
-3.337390899446465e-17 
-3.748852851141851e-18 
5.3023056525290974e-18 
-3.968726572649267e-18 
1.539396608027057e-18 
4.298253123187825e-17 
1.8457874498749305e-18 
2.820030966191362e-17 
3.7459130310187324e-17 
3.306950022838986e-17 
2.924675076551226e-17 
-1.519185883349736e-17 
1.8174347784121867e-17 
-1.649399636135296e-17 
8.974138251769183e-18 
-3.2210201085471834e-17 
7.359635584675711e-17 
-7.22945128564885e-17 
1.1039710846309843e-16 
-7.287228631299833e-17 
3.1286782298760855e-17 
3.0478536908112396e-17 
-3.681574572344063e-18 
-1.3582348569268441e-17 
2.5280532966780233e-17 
-3.544193152343486e-17 
5.86307446107263e-17 
-5.378894839691109e-17 
-5.130662620563528e-17 
-1.2323834897548667e-17 
-5.460449624585336e-17 
1.072490477421424e-17 
-7.022458606475207e-17 
2.252820449290073e-16 
3.2248387324333274e-17 
1.6063932155060268e-16 
-1.1592611519271939e-16 
-9.43937597868232e-17 
-4.62853699945673e-17 
-1.7289129436314093e-16 
-2.152704122335975e-17 
-2.3360890275231276e-18 
1.6080122662494655e-6 
1.160278536947191e-5 
0.002139905491660382 
0.00040007940605809445 
1.582509559713023e-5 
-2.0241117333083335e-5 
4.8714773150120574e-5 
0.5871688669254068 
3.093976379861746e-7 
0.0006455162006398446 
6.696750188576046e-7 
-2.049412721702166e-6 
5.8876961631630455e-5 
4.129779380080805e-5 
0.0008728028178561235 
0.05035823136252236 
1.3166015364647382e-5 
-2.4297501526531637e-5 
0.003573871300348219 
3.2799623873238046e-6 
2.1252516486339143e-5 
-0.0004364302730397499 
0.00638500712416045 
1.2716255499266433e-5 
-0.0001395488887903169 
0.0004116881945638459 
0.11705971415947107 
-2.812278468659627e-6 
-2.097037648007575e-5 
0.00036076269009564213 
0.013725793489918231 
-3.3400211157686644e-6 
2.45367303818297e-5 
-8.846191624252408e-5 
-2.265145407510289e-6 
-8.532245242585297e-6 
-0.0003079935036882812 
-0.0006689454495878461 
1.3191310438116629e-5 
-1.0314007136696424e-5 
2.074179897960644e-5 
0.00018653315855188675 
0.0011913714366261416 
0.20758531537457647 
4.865076063139934e-6 
-0.00011549435091807043 
0.027037436040291997 
-2.6909670495679665e-6 
3.1178953543755215e-7 
-6.953287452247621e-6 
-0.0010539811407028023 
3.4407933698974246e-7 
7.031170453753235e-6 
-0.000576128836845897 
0.004210512188585009 
5.777335689490999e-6 
3.815545352898652e-5 
0.0010343831248811313 
-1.9073961826623256e-7 
1.813643626177835e-5 
-0.00016943090450137198 
-0.00019427999970975495 
0.0002556190267010065 
0.0003338255673907939 
9.20787306630922e-6 
-7.895643565802717e-5 
0.0002114540679741715 
0.004076526128580565 
-1.661721317624854e-6 
-6.890616289972773e-5 
2.1049414444670502e-5 
0.002258346286736852 
0.002991784775816479 
-0.0006984705793111448 
1.534381031520155e-6 
6.6687385494499365e-6 
-3.3341391622770845e-5 
-0.0005742485251549036 
8.549943357058199e-7 
1.1153511249012012e-5 
0.00010805229855885567 
1.5905291355455452e-5 
-0.0003169051907261974 
0.4325194168903721 
1.3883035384964455e-5 
-5.312135751390705e-5 
-0.00018029797748503925 
-1.918969202684099e-6 
3.2675866620287788e-6 
-0.00014447830864545568 
-0.00013205339216521665 
-1.0055587297547397e-5 
5.174718622658865e-5 
-0.00016789124643924372 
-0.0003992165592450532 
0.16319209724284575 
3.851482158198003e-6 
-0.0007771701988670798 
-2.6910391765365494e-5 
4.59521779426877e-5 
0.08691082485778974 
2.4122120736407284e-6 
0.0003704224421252731 
-1.1021298417419203e-6 
-4.355234905111884e-6 
-0.00014516042980785565 
0.0008463491712350859 
2.140669965837532e-6 
0.00013122092462435926 
0.003934871649712649 
-1.4474954576685856e-6 
1.1609300525089926e-5 
-0.00019688238888771603 
-2.3352662248395787e-5 
9.799994041195758e-5 
0.3459994371572777 
7.370634635740134e-7 
0.0003307567954052848 
-0.00012862450616920308 
0.0015170962332862966 
0.0063606745268114575 
6.7221041961183686e-6 
-5.728477413044976e-5 
-0.00041193529306509296 
-8.433597543792022e-6 
4.580974449103208e-5 
0.001026710115086269 
6.173685305838118e-6 
-3.307333788330599e-5 
0.00048650445309858915 
0.1449419097492885 
4.2585709490676844e-6 
-6.891518467170863e-5 
-0.0014171885903923168 
1.622342523354032e-6 
2.714142913783024e-5 
1.8979065673317966e-5 
-0.0005356960493480166 
-1.2749838290842897e-6 
4.710857188629147e-6 
-0.00010641752361607045 
0.0001289456315591582 
0.02931073744754698 
6.520358214758689e-6 
0.0001422892162714071 
3.362835242594025e-5 
0.00021018689396577406 
-0.00011387932637792582 
-1.9476689429835363e-6 
2.1264263443667568e-5 
-0.0004481070771327192 
-1.8816977867618686e-7 
4.908524804541336e-6 
-0.00017745092709369403 
-0.000356147770458179 
9.291139341193185e-10 
-1.4204160870575104e-5 
-0.0007939009801859727 
6.5080290162579245e-6 
3.8034625669260874e-7 
9.969012510161378e-5 
-0.00023803953262288569 
0.0004224895161199579 
1.3889482930859246e-6 
5.85695882110124e-6 
0.0004393678969935119 
0.0004561314693344711 
-3.991539559517731e-6 
2.9932318150148236e-5 
-1.4740167616964275e-5 
0.00038100358935715546 
-1.5072669134617629e-6 
2.87599833924159e-6 
-0.0002100737630558089 
0.08105952167585685 
9.006461822039411e-6 
-5.1250180352899436e-5 
-0.00042078007300854896 
0.2519451299390876 
-2.1868957518557766e-6 
-9.180718919479893e-5 
-0.0004932679661575047 
0.6472391401089402 
6.425352250737641e-6 
-0.0006481228208669904 
-2.221683293888947e-6 
-4.882633194148041e-7 
9.763293831251825e-5 
-3.735788124731426e-5 
-0.0009480157300190851 
-2.238264872324308e-7 
3.4510644429257023e-6 
0.0007683735534582406 
0.08350403454766116 
3.451590626280467e-6 
4.447314662334372e-5 
0.0003612938309889601 
0.02246228149960227 
-3.057288487325426e-5 
1.2054912847794016e-5 
-0.00010881927201381573 
0.007372307362403423 
4.107959695578948e-6 
-2.5697316508957442e-5 
0.0027052013783742347 
-3.781575508817913e-5 
-1.6898434839347936e-5 
0.00021175270525142028 
1.8049008436173953e-5 
-7.559547498914587e-5 
5.2556778023606735e-6 
-3.3166227841561677e-6 
0.0008423799036181849 
5.284144025268717e-7 
2.0304723000084417e-6 
-0.00011089988377444864 
-6.276931037991018e-5 
-4.568351512727962e-5 
0.007691379988544989 
2.1446113332153288e-5 
1.3584951456007633e-5 
-3.42603938588745e-5 
0.00040863976168719555 
-1.0248740255769225e-8 
-3.967682144875807e-6 
-0.0006036302244275939 
0.0011758950882376398 
-3.96863875029321e-6 
-9.76312184123444e-6 
-0.00010509649206804484 
0.02017558672726616 
2.0916975056992117e-6 
-5.112654975000843e-6 
-0.0002668490634512996 
7.543293774800119e-5 
3.864906338969911e-7 
-7.070944980444628e-5 
0.0010135075333247644 
0.004307090811779231 
8.199534547196197e-6 
0.0003559908794070795 
-0.0003333012465971229 
0.05110930546157104 
3.408338874515867e-6 
-0.00016523128252369167 
0.0011804330995924819 
-1.8304539925316608e-6 
-8.969544142401414e-6 
1.2496797320242106e-5 
-0.00037751867414320277 
-0.0003205652740501006 
2.8390579615909176e-6 
-0.0006817459594121229 
-1.0027354769952274e-6 
-8.121290994893144e-6 
6.849780254439694e-5 
6.218169799579313e-5 
0.00048165588358132713 
0.01530738858090293 
1.861960075722126e-6 
-0.00015645597177215068 
3.2215989908854694e-7 
-1.7606452606471476e-6 
-2.2086470455212803e-5 
-5.8127633634276236e-6 
-0.00010628291253923748 
-0.0002559265360022974 
-0.0004098066887373032 
1.8308776733659548e-6 
-9.455058723014714e-7 
0.0001026221638580035 
-0.0004160402143672314 
0.1402393022114287 
4.5375758016223254e-6 
-6.835007891962505e-6 
-0.00032373242683709813 
-0.0005617114949897187 
-1.6787205506390314e-6 
-3.794217401657573e-6 
-0.0004372700013533169 
0.011665915237113035 
0.0014652641098073641 
-1.92109047508247e-5 
7.593663333984551e-6 
-6.263478124891993e-6 
0.02166302616094898 
-5.893317965121104e-5 
-0.00010158615238851573 
0.0006486753153304579 
-4.172149019006997e-7 
-2.5721854632549845e-6 
0.0003351583947095783 
-5.109701132990536e-6 
-1.6023593416796407e-5 
-8.219322244032552e-6 
3.251810976673316e-5 
1.2866460513217744e-6 
-5.940443233181622e-6 
-6.595730160594571e-5 
0.00998125006603292 
1.5201070715403445e-6 
-9.554272354403092e-5 
0.0002829770596368016 
0.32628479174270536 
-3.930032738459001e-6 
1.1265660107692418e-5 
0.0014122250929744775 
-0.0006504710422427186 
0.0006315916970620799 
0.3585954876814398 
-1.3275423081736173e-6 
-5.097873538532765e-5 
-5.249949361321542e-5 
-0.0003038074756806522 
0.657177222387466 
1.6977252755471663e-6 
4.7217682290321584e-5 
-0.00013893279715816156 
-1.9937022213102498e-5 
-3.0968465968052164e-7 
-0.0019365836305057524 
-0.0001805535349009521 
-0.0006564091630659133 
-0.0001827745213600589 
-3.7418258802425493e-6 
-7.576971745914274e-5 
0.00020537683500330148 
-0.00027961594883634737 
9.690148391717655e-7 
1.4449729552683138e-5 
-4.367773362642608e-5 
2.1588932926267245e-5 
-0.0002733220443619693 
0.0779077537088085 
2.768547822740458e-6 
6.466216985817726e-5 
7.50191677578608e-5 
-1.2220644607559537e-7 
3.687819370111702e-5 
0.0005971317708424287 
0.08382912417131266 
-4.898331273099012e-6 
0.00014931473024061507 
-4.474009485961804e-5 
-0.0005069206667893425 
0.03128342748997329 
1.959519847610035e-6 
-0.000315489915976257 
1.1239305646737427e-5 
-0.001966201677313456 
0.002405405761131537 
-0.00029624639127690135 
-6.942170529654531e-7 
-2.7399535787979533e-6 
1.4683438842994233e-5 
-0.00016624872451705952 
0.003876568242672517 
-5.985583258413374e-7 
2.6401546105248604e-5 
0.00012299163730356517 
0.0006379533765279146 
-1.612169833713988e-6 
-2.132319766513219e-6 
-2.1058502027561717e-6 
-0.0002779104679916083 
3.390071693284857e-5 
-8.054955247900031e-7 
-0.00034157480641973517 
-1.5826344217381582e-6 
-1.3329706500908568e-5 
-6.771292599030004e-5 
5.252000486923581e-6 
-1.2341164723974725e-6 
-1.402090275573278e-5 
-5.163365603638773e-5 
-2.9923039665993988e-5 
-0.0003926732677030085 
0.3309667329941031 
3.2451675318135988e-6 
0.00011876125379945057 
0.19867334868956105 
1.7509796581782042e-6 
8.711676884543012e-5 
8.857574538524205e-6 
-6.789041662998643e-5 
-0.0002003828958183743 
0.36399162181754136 
-1.5146823964129916e-6 
9.793182444029886e-5 
0.0005089687635212182 
0.0015578373112047183 
-7.053736697204916e-7 
-0.0009702780581632575 
5.371644338776533e-5 
-0.0010542716120755973 
0.0012304239381021244 
8.140727980474667e-6 
0.00021650163434307573 
-1.3982016352256008e-6 
-9.510138185621292e-6 
-3.85890649750162e-5 
1.2343473515510666e-5 
-1.6493372341195056e-5 
0.0009229456871291897 
0.11397494208605909 
2.461395069410131e-5 
-0.0003619814975771725 
-0.0006798553919310659 
2.4665282887482445e-6 
-2.5786309082602313e-5 
0.005081476449167086 
-5.468574956217442e-6 
-1.928295516481318e-5 
-0.0002019244456629543 
0.007312403180699629 
1.0806318259413816e-5 
0.0006979858985781358 
-1.9710323277515874e-5 
-4.347763937549034e-6 
6.378474776850141e-5 
9.733965548485791e-6 
-0.00019502598322066473 
0.014081996536315618 
5.244114299138633e-7 
-6.274558769695245e-5 
0.00010564861312203788 
-3.576352813222164e-5 
1.7984363762030436e-6 
5.836262710071802e-5 
0.11390866604453925 
-9.776995992550163e-7 
4.2330841032728896e-5 
0.0003343551747633376 
-1.7725723758145175e-6 
-9.885729817801066e-6 
-3.2418856057524855e-5 
1.8050247121852638e-6 
-0.0008049689848511785 
4.0517201063949354e-6 
-1.1789601813139802e-5 
-1.0467897819518297e-5 
-0.0019413924728919638 
-1.719441063893593e-7 
8.198807269115269e-6 
3.736585592187058e-5 
0.0023835732643337332 
-1.3926679177462451e-6 
-1.1288933023204503e-5 
0.012569651483223313 
9.293656004381854e-7 
-0.0007227703408515673 
2.2927693257233882e-5 
-4.800813172271687e-6 
-1.852910901870213e-5 
-1.675327017666396e-5 
-0.00024228591030933962 
-1.1330109348780062e-6 
-5.986434603758283e-6 
-0.0001551021714106627 
0.0014838990883584181 
0.04147758742240086 
-6.668172227393117e-7 
-7.381870686862146e-5 
0.15143347547905767 
2.3691100658120724e-6 
2.3943560297547635e-6 
0.0005556062661376984 
-0.00041059109019240864 
0.0014911839350436596 
3.6303837742938724e-6 
-9.762488615286176e-7 
-0.0005031152274065332 
-0.00024882171941469414 
-0.0007522180872312874 
-1.0736600211848718e-6 
3.5251629843433176e-7 
0.0020477181746037802 
0.006811532406969903 
-9.12896555414084e-6 
-8.754166027462756e-5 
0.00023488083269455093 
0.0015913260818411646 
5.142087503135725e-6 
2.609785401650115e-5 
0.0004901744876268829 
-0.00043191021358640673 
0.00018719668517568907 
0.002011887455098167 
0.0005555813106246091 
0.005498073626886051 
0.00042992061905261156 
2.858247375927762e-6 
0.0002825794559027482 
9.790856990974681e-6 
-1.0685275767351058e-5 
-3.252730700092157e-5 
-0.00017089589244828398 
0.00012386897814159792 
1.8089048911674887e-5 
0.3705033504520234 
0.21479209101005034 
0.23035697038925843 
-2.2520921932380836e-6 
-9.71434517462072e-7 
-8.43313017615349e-9 
-3.2127494314321584e-5 
3.5278043414549675e-5 
-1.8028425535477234e-5 
0.00014867703709025348 
-0.00017108565140516442 
-1.5571098503036207e-6 
3.233482405161597e-5 
0.0016405618911643383 
0.00013890955559815366 
0.0026787845183739423 
0.00026513868023851736 
3.324961000027132e-5 
-2.8293028617194448e-5 
2.9728778959209775e-5 
-6.509734747971441e-5 
0.2144638187010097 
0.12768012396675252 
-6.92133498952465e-7 
-4.494740274051162e-6 
0.0009349429688114513 
9.008830698727346e-5 
9.951897869358699e-5 
-5.4556502264521595e-6 
-0.00026001490529607143 
6.476648076029087e-5 
0.0002628646891786341 
-6.914426636822308e-5 
5.78227779824293e-5 
-0.00016591733788429226 
0.0001923741882297673 
0.00023170131061931047 
-0.0004095252916304821 
0.00046385533257906335 
7.533280989346654e-7 
-2.4953129881911577e-6 
1.6891119845498223e-6 
1.0714313031954581e-5 
-5.570411127708781e-6 
1.7764731303400206e-5 
2.7442631802229775e-5 
4.000628709945601e-5 
0.0003741092490327127 
-2.8085966855595053e-5 
-7.354119930906005e-7 
-7.083838213583263e-7 
1.0589276781130867e-6 
5.969498072906802e-6 
0.0001697254634574647 
-8.463400582049028e-5 
-0.00012023920641381316 
-0.00023219787986099115 
1.5462285624706701e-6 
-2.4397012926308877e-6 
2.8341256735593964e-5 
1.1535416088617347e-6 
0.00012531630825224303 
7.544846256036308e-6 
-5.7601756990390733e-5 
0.00032661308054188123 
-0.0003776645892619716 
-0.0003320450614955322 
0.48620629750491745 
0.2739820520319004 
0.3359333543700094 
1.4083441748742302e-6 
-6.539999357801738e-7 
-3.0019813667464056e-6 
0.0002965698118306312 
-0.0003734778638124858 
0.00033673316561482776 
-3.72602606053085e-6 
3.0663380923635227e-6 
-3.4413526523529328e-6 
-6.769765475461356e-6 
1.6656579551231887e-6 
1.5537292961113085e-5 
6.355249931779266e-5 
6.5412229555689254e-6 
0.00017500363528988967 
0.00041226741738023266 
-0.00021589297009340393 
0.0002457505559590907 
9.60178107037925e-7 
-1.4534770570847391e-6 
-1.17435228279703e-6 
-5.6361607410419655e-6 
8.725647073849232e-7 
-7.845950292416632e-7 
-1.201154435184319e-5 
6.361475896304911e-5 
-9.94948953668377e-5 
0.0001008557959722612 
0.0001289602567894733 
6.194729082744193e-7 
7.71511914065293e-6 
7.318111767442907e-5 
-1.704069316493439e-6 
-2.81950809246844e-6 
2.519516280494089e-5 
-3.884834816460027e-5 
-0.0005976800034826639 
7.798687273483022e-6 
3.2422170960295985e-6 
3.936929163213173e-6 
2.956746475934622e-6 
1.0071819340199446e-6 
9.385195336289603e-6 
-0.00039561517181753366 
0.000326224942511633 
0.0003304687288661505 
2.6724682165575008e-5 
-9.302294503611812e-5 
0.00044410837523966337 
-0.0003946164745912885 
-8.785339749691568e-7 
3.8116953172573916e-7 
-3.7475535555810977e-6 
1.355923451840777e-5 
-5.938948748478835e-5 
9.768398838997436e-6 
-0.00026626048571836124 
0.0001309275768233824 
-3.0794536009389717e-6 
1.2676428161205451e-6 
-6.608767620608729e-6 
1.3587487783175419e-5 
-3.107801341989164e-5 
2.631704944713835e-5 
0.0003977675766108732 
0.00032919707602534497 
0.1894341562322177 
0.11814058180104448 
-1.0077972810777565e-6 
-3.575946924537546e-6 
-5.10859340256391e-5 
-1.9943136492253472e-5 
3.870595082699154e-5 
-0.0018861778879256626 
0.0002184371506601052 
0.002026062907891559 
4.070812143731955e-6 
2.6329348681127995e-6 
7.342639990785372e-7 
7.935692568101092e-6 
-8.919009972451281e-6 
-2.6176248009923142e-6 
6.65242007911223e-6 
0.00014711101471398639 
-0.0002375469734716706 
0.00011023335256523414 
0.0002816733039251243 
-5.233120624188117e-5 
-2.3823204806464088e-6 
6.601058073492833e-7 
-3.0021613065123584e-7 
-3.2859249572156313e-6 
0.0004799552424190126 
0.00011376185539750574 
-0.0006710376937378029 
0.00032691206198725463 
0.0008145835457821102 
1.6238091253254162e-5 
3.260758132338682e-6 
-4.884812539208313e-6 
8.504436371784088e-6 
-1.610194315620069e-5 
9.746588878835878e-5 
-0.00011643509330100706 
9.72649627478102e-5 
0.00045688359934153034 
-0.00034881040114575124 
-1.1250395112207246e-7 
1.3520347614587568e-6 
7.130674048350676e-7 
-7.671557548937135e-6 
1.7654200173711327e-5 
6.487738756979078e-6 
7.976908013685523e-5 
0.00019531549823486994 
-0.00011841562902587931 
-3.081806948055702e-5 
2.5593904114354022e-5 
-0.0009487732701623461 
0.0008881401949514626 
2.4708487195528556e-7 
2.4224526477887075e-6 
1.1700174326804897e-5 
-2.5430950037372075e-6 
1.8772609892773104e-5 
-0.0001826461294110964 
0.00023974783746360048 
5.689015772583005e-6 
-8.112237316124782e-5 
0.0004671589179434974 
9.048617847155122e-7 
5.175533761635953e-7 