# vtk DataFile Version 3.0 
Unstructured Grid 
ASCII 
DATASET UNSTRUCTURED_GRID
POINTS 2173 float 
-0.5 -0.5 0  
0.5 -0.5 0  
0.5 0.5 0  
-0.5 0.5 0  
-0.475 -0.5 0  
-0.45 -0.5 0  
-0.425 -0.5 0  
-0.4 -0.5 0  
-0.375 -0.5 0  
-0.35 -0.5 0  
-0.325 -0.5 0  
-0.3 -0.5 0  
-0.275 -0.5 0  
-0.25 -0.5 0  
-0.225 -0.5 0  
-0.2 -0.5 0  
-0.175 -0.5 0  
-0.15 -0.5 0  
-0.125 -0.5 0  
-0.1 -0.5 0  
-0.075 -0.5 0  
-0.05 -0.5 0  
-0.025 -0.5 0  
-1.3761214e-12 -0.5 0  
0.025 -0.5 0  
0.05 -0.5 0  
0.075 -0.5 0  
0.1 -0.5 0  
0.125 -0.5 0  
0.15 -0.5 0  
0.175 -0.5 0  
0.2 -0.5 0  
0.225 -0.5 0  
0.25 -0.5 0  
0.275 -0.5 0  
0.3 -0.5 0  
0.325 -0.5 0  
0.35 -0.5 0  
0.375 -0.5 0  
0.4 -0.5 0  
0.425 -0.5 0  
0.45 -0.5 0  
0.475 -0.5 0  
0.5 -0.475 0  
0.5 -0.45 0  
0.5 -0.425 0  
0.5 -0.4 0  
0.5 -0.375 0  
0.5 -0.35 0  
0.5 -0.325 0  
0.5 -0.3 0  
0.5 -0.275 0  
0.5 -0.25 0  
0.5 -0.225 0  
0.5 -0.2 0  
0.5 -0.175 0  
0.5 -0.15 0  
0.5 -0.125 0  
0.5 -0.1 0  
0.5 -0.075 0  
0.5 -0.05 0  
0.5 -0.025 0  
0.5 -1.3761214e-12 0  
0.5 0.025 0  
0.5 0.05 0  
0.5 0.075 0  
0.5 0.1 0  
0.5 0.125 0  
0.5 0.15 0  
0.5 0.175 0  
0.5 0.2 0  
0.5 0.225 0  
0.5 0.25 0  
0.5 0.275 0  
0.5 0.3 0  
0.5 0.325 0  
0.5 0.35 0  
0.5 0.375 0  
0.5 0.4 0  
0.5 0.425 0  
0.5 0.45 0  
0.5 0.475 0  
0.475 0.5 0  
0.45 0.5 0  
0.425 0.5 0  
0.4 0.5 0  
0.375 0.5 0  
0.35 0.5 0  
0.325 0.5 0  
0.3 0.5 0  
0.275 0.5 0  
0.25 0.5 0  
0.225 0.5 0  
0.2 0.5 0  
0.175 0.5 0  
0.15 0.5 0  
0.125 0.5 0  
0.1 0.5 0  
0.075 0.5 0  
0.05 0.5 0  
0.025 0.5 0  
1.3761214e-12 0.5 0  
-0.025 0.5 0  
-0.05 0.5 0  
-0.075 0.5 0  
-0.1 0.5 0  
-0.125 0.5 0  
-0.15 0.5 0  
-0.175 0.5 0  
-0.2 0.5 0  
-0.225 0.5 0  
-0.25 0.5 0  
-0.275 0.5 0  
-0.3 0.5 0  
-0.325 0.5 0  
-0.35 0.5 0  
-0.375 0.5 0  
-0.4 0.5 0  
-0.425 0.5 0  
-0.45 0.5 0  
-0.475 0.5 0  
-0.5 0.475 0  
-0.5 0.45 0  
-0.5 0.425 0  
-0.5 0.4 0  
-0.5 0.375 0  
-0.5 0.35 0  
-0.5 0.325 0  
-0.5 0.3 0  
-0.5 0.275 0  
-0.5 0.25 0  
-0.5 0.225 0  
-0.5 0.2 0  
-0.5 0.175 0  
-0.5 0.15 0  
-0.5 0.125 0  
-0.5 0.1 0  
-0.5 0.075 0  
-0.5 0.05 0  
-0.5 0.025 0  
-0.5 1.3761214e-12 0  
-0.5 -0.025 0  
-0.5 -0.05 0  
-0.5 -0.075 0  
-0.5 -0.1 0  
-0.5 -0.125 0  
-0.5 -0.15 0  
-0.5 -0.175 0  
-0.5 -0.2 0  
-0.5 -0.225 0  
-0.5 -0.25 0  
-0.5 -0.275 0  
-0.5 -0.3 0  
-0.5 -0.325 0  
-0.5 -0.35 0  
-0.5 -0.375 0  
-0.5 -0.4 0  
-0.5 -0.425 0  
-0.5 -0.45 0  
-0.5 -0.475 0  
-0.002115384 -0.00023065208 0  
-0.20714286 -0.20714286 0  
0.20714286 -0.20714286 0  
0.20714286 0.20714286 0  
-0.20714286 0.20714286 0  
-0.28155318 -0.0017231192 0  
0.0017231192 -0.28155318 0  
0.28155318 0.0017231192 0  
-0.0017231192 0.28155318 0  
0.3319978 -0.33098683 0  
0.33098683 0.3319978 0  
-0.3319978 0.33098683 0  
-0.33098683 -0.3319978 0  
-0.14015679 -0.06698606 0  
0.06698606 -0.14015679 0  
0.14015679 0.06698606 0  
-0.06698606 0.14015679 0  
-0.1387125 -0.34573975 0  
0.34573975 -0.1387125 0  
0.1387125 0.34573975 0  
-0.34573975 0.1387125 0  
0.14046866 -0.34602854 0  
0.34602854 0.14046866 0  
-0.14046866 0.34602854 0  
-0.34602854 -0.14046866 0  
-0.05869875 -0.16617337 0  
0.18217777 -0.061504476 0  
0.062312964 0.18362015 0  
-0.18362015 0.062312964 0  
-0.034321424 -0.38563195 0  
0.38563195 -0.034321424 0  
0.034321424 0.38563195 0  
-0.38563195 0.034321424 0  
0.39586002 -0.2428538 0  
0.2428538 0.39586002 0  
-0.39586002 0.2428538 0  
-0.2428538 -0.39586002 0  
0.23688246 -0.38952246 0  
0.38952246 0.23688246 0  
-0.23688246 0.38952246 0  
-0.38952246 -0.23688246 0  
-0.24287231 -0.09948847 0  
0.09948847 -0.24287231 0  
0.24287231 0.09948847 0  
-0.09948847 0.24287231 0  
-0.11560815 -0.24300627 0  
0.24300627 -0.11560815 0  
0.11560815 0.24300627 0  
-0.24300627 0.11560815 0  
-0.40192315 -0.4008276 0  
0.4008276 -0.40192315 0  
0.40192315 0.4008276 0  
-0.4008276 0.40192315 0  
0.06409326 -0.40289903 0  
0.40289903 0.06409326 0  
-0.06409326 0.40289903 0  
-0.40289903 -0.06409326 0  
0.2962961 -0.23982804 0  
0.23982804 0.2962961 0  
-0.2962961 0.23982804 0  
-0.23982804 -0.2962961 0  
-0.28087237 -0.21196799 0  
0.21196799 -0.28087237 0  
0.28087237 0.21196799 0  
-0.21196799 0.28087237 0  
-0.0901279 0.007867504 0  
-0.05002927 -0.07494272 0  
0.0873353 -0.009871756 0  
0.0071518295 0.09216282 0  
-0.14120433 -0.1484696 0  
-0.14581114 0.13960092 0  
0.1458264 -0.14505939 0  
0.13960092 0.14581114 0  
0.41838804 -0.3182741 0  
0.3182741 0.41838804 0  
-0.41838804 0.3182741 0  
-0.3182741 -0.41838804 0  
0.32118136 -0.41712493 0  
0.41712493 0.32118136 0  
-0.32118136 0.41712493 0  
-0.41712493 -0.32118136 0  
-0.19707234 -0.014843048 0  
0.018050108 -0.20183705 0  
0.19707234 0.014843048 0  
-0.014843048 0.19707234 0  
-0.10938372 -0.41847488 0  
0.41847488 -0.10938372 0  
0.10938372 0.41847488 0  
-0.41847488 0.10938372 0  
0.15773043 -0.4267032 0  
0.4267032 0.15773043 0  
-0.15773043 0.4267032 0  
-0.4267032 -0.15773043 0  
-0.3204562 -0.07174808 0  
0.07174808 -0.3204562 0  
0.3204562 0.07174808 0  
-0.07174808 0.3204562 0  
0.02801032 -0.07269879 0  
-0.31817523 0.069836795 0  
-0.069836795 -0.31817523 0  
0.31817523 -0.069836795 0  
0.069836795 0.31817523 0  
0.43106207 -0.17757268 0  
0.17757268 0.43106207 0  
-0.43106207 0.17757268 0  
-0.17757268 -0.43106207 0  
0.0703783 0.071201205 0  
-0.051593844 0.064346604 0  
0.099701226 -0.08333426 0  
0.2863281 -0.17248559 0  
0.17248559 0.2863281 0  
-0.2863281 0.17248559 0  
-0.17248559 -0.2863281 0  
-0.2341888 0.04979648 0  
-0.049194112 -0.231281 0  
0.23358595 -0.04946041 0  
0.04979648 0.2341888 0  
-0.009939441 -0.13691185 0  
-0.26560438 -0.17864102 0  
0.17864102 -0.26560438 0  
0.26560438 0.17864102 0  
-0.17864102 0.26560438 0  
0.013302229 -0.43510666 0  
0.43510666 0.013302229 0  
-0.013302229 0.43510666 0  
-0.43510666 -0.013302229 0  
0.09432827 0.114700764 0  
-0.11539384 0.093188405 0  
-0.3413634 -0.005100272 0  
0.005100272 -0.3413634 0  
0.3413634 0.005100272 0  
-0.005100272 0.3413634 0  
-0.19817708 -0.3508856 0  
0.3508856 -0.19817708 0  
0.19817708 0.3508856 0  
-0.3508856 0.19817708 0  
-0.34100306 -0.27216324 0  
0.27216324 -0.34100306 0  
0.34100306 0.27216324 0  
-0.27216324 0.34100306 0  
-0.20269383 -0.14403741 0  
0.14393912 -0.2028372 0  
0.2026342 0.14393856 0  
-0.14393856 0.2026342 0  
-0.1030633 -0.10524017 0  
-0.4394695 -0.104853734 0  
0.104853734 -0.4394695 0  
0.4394695 0.104853734 0  
-0.104853734 0.4394695 0  
-0.44156647 -0.44156647 0  
0.44156647 -0.44156647 0  
0.44156647 0.44156647 0  
-0.44156647 0.44156647 0  
-0.2683254 -0.44465622 0  
0.44465622 -0.2683254 0  
0.2683254 0.44465622 0  
-0.44465622 0.2683254 0  
0.2654342 -0.4435478 0  
0.4435478 0.2654342 0  
-0.2654342 0.4435478 0  
-0.4435478 -0.2654342 0  
-0.27373606 -0.34534052 0  
0.34534052 -0.27373606 0  
0.27373606 0.34534052 0  
-0.34534052 0.27373606 0  
-0.05307205 -0.4481981 0  
0.4481981 -0.05307205 0  
0.05307205 0.4481981 0  
-0.4481981 0.05307205 0  
-0.35614902 -0.19390328 0  
0.19390328 -0.35614902 0  
0.35614902 0.19390328 0  
-0.19390328 0.35614902 0  
-0.14022674 -0.012452113 0  
0.14171903 0.011271359 0  
-0.01125192 0.14089845 0  
-0.19556868 -0.06932378 0  
0.070511825 -0.19668652 0  
0.19556868 0.06932378 0  
-0.06932378 0.19556868 0  
-0.24951252 -0.039742906 0  
0.04037078 -0.2503529 0  
0.24951252 0.039742906 0  
-0.039742906 0.24951252 0  
0.44100407 -0.36164257 0  
0.36164257 0.44100407 0  
-0.44100407 0.36164257 0  
-0.36164257 -0.44100407 0  
-0.4451273 -0.36589316 0  
0.36589316 -0.4451273 0  
0.4451273 0.36589316 0  
-0.36589316 0.4451273 0  
0.1121834 -0.30242515 0  
0.30242515 0.1121834 0  
-0.1121834 0.30242515 0  
-0.30242515 -0.1121834 0  
-0.115146436 -0.19087775 0  
0.19190264 -0.11309679 0  
0.11520548 0.19263776 0  
-0.19263776 0.11520548 0  
-0.08287991 -0.37025127 0  
0.37025127 -0.08287991 0  
0.08287991 0.37025127 0  
-0.37025127 0.08287991 0  
0.23791528 -0.24381089 0  
0.24381089 0.23791528 0  
-0.23791528 0.24381089 0  
-0.24381089 -0.23791528 0  
-0.44626984 -0.21174923 0  
0.21174923 -0.44626984 0  
0.44626984 0.21174923 0  
-0.21174923 0.44626984 0  
0.35174853 -0.37705234 0  
0.37705234 0.35174853 0  
-0.35174853 0.37705234 0  
-0.37705234 -0.35174853 0  
-0.048605647 -0.023262763 0  
-0.1551113 -0.21381997 0  
0.21381997 -0.1551113 0  
0.1551113 0.21381997 0  
-0.21381997 0.1551113 0  
-0.29403278 -0.30027482 0  
0.30027482 -0.29403278 0  
0.29403278 0.30027482 0  
-0.30027482 0.29403278 0  
0.12173745 -0.390654 0  
0.390654 0.12173745 0  
-0.12173745 0.390654 0  
-0.390654 -0.12173745 0  
-0.12236246 -0.2979882 0  
0.2979882 -0.12236246 0  
0.12236246 0.2979882 0  
-0.2979882 0.12236246 0  
-0.0945969 -0.046371013 0  
0.035276897 -0.027358124 0  
-0.0076714605 0.051946 0  
-0.30809116 -0.17165439 0  
0.17165439 -0.30809116 0  
0.30809116 0.17165439 0  
-0.17165439 0.30809116 0  
-0.16592422 -0.10879113 0  
0.10700909 -0.1687818 0  
0.16864619 0.10664837 0  
-0.10664837 0.16864619 0  
-0.16784625 -0.38069874 0  
0.38069874 -0.16784625 0  
0.16784625 0.38069874 0  
-0.38069874 0.16784625 0  
-0.4563872 -0.05993889 0  
0.05993889 -0.4563872 0  
0.4563872 0.05993889 0  
-0.05993889 0.4563872 0  
0.31103167 -0.37412483 0  
0.37412483 0.31103167 0  
-0.31103167 0.37412483 0  
-0.37412483 -0.31103167 0  
-0.3909646 -0.012754724 0  
0.012754724 -0.3909646 0  
0.3909646 0.012754724 0  
-0.012754724 0.3909646 0  
0.44915667 -0.21679194 0  
0.21679194 0.44915667 0  
-0.44915667 0.21679194 0  
-0.21679194 -0.44915667 0  
0.045831423 0.12033131 0  
-0.12662303 0.045442794 0  
-0.3107799 -0.37355793 0  
0.37355793 -0.3107799 0  
0.3107799 0.37355793 0  
-0.37355793 0.3107799 0  
0.04152367 0.021693805 0  
-0.08040017 -0.2675595 0  
0.26794365 -0.08044455 0  
0.080500565 0.2680441 0  
-0.2680441 0.080500565 0  
-0.13753757 -0.45578164 0  
0.45578164 -0.13753757 0  
0.13753757 0.45578164 0  
-0.45578164 0.13753757 0  
-0.05507968 -0.12135967 0  
0.14172421 -0.09428923 0  
0.2571752 -0.19664502 0  
[...]
POINT_DATA 2173 
SCALARS T float 
LOOKUP_TABLE default 
1.1602653160082717e-17 
1.5564327614058255e-20 
-4.3158389192326473e-19 
5.3424165355538106e-18 
1.495110255756935e-17 
5.619442814240971e-17 
6.327304073504664e-16 
-3.688030145071264e-16 
-6.364192804061711e-16 
-6.506668025662218e-16 
-9.968605898323364e-16 
8.928481973902233e-16 
2.2977825599555654e-16 
3.175389255626001e-16 
3.7759312241899654e-17 
-1.428561804032221e-16 
-5.515205485169352e-16 
-3.3062684484527103e-16 
4.327083962230043e-16 
8.628841384457818e-17 
-2.9168448417076394e-17 
-3.315835900604368e-16 
7.212200700205219e-16 
-1.2315514350628308e-15 
1.0470698130567665e-15 
-7.400046511139781e-16 
1.2636574513579284e-16 
-1.452299301342882e-16 
-2.947538548571716e-17 
-7.953530287561816e-17 
-1.611952368746143e-17 
-1.2947328673326285e-17 
-5.541452279313245e-18 
4.2824107460644124e-18 
4.447372735416861e-18 
2.7198218711023645e-18 
9.479165006620881e-19 
6.386099692206962e-19 
1.2714699287835654e-19 
9.435633509787857e-20 
-5.122245533576655e-19 
1.8857289063885704e-19 
2.303881008137071e-19 
-1.8258447152128891e-19 
-3.590197318359832e-19 
1.0165322386028358e-18 
-6.25751700697915e-19 
-1.0437724387276155e-19 
-1.7285310108777122e-19 
3.336144427803517e-19 
1.2837069761533072e-18 
-4.246680463518874e-18 
5.945457561213603e-18 
-5.0677377862700634e-18 
1.7089844400005547e-18 
7.859071570061255e-19 
-2.2590436100296608e-18 
4.6768490993608e-18 
-3.737365573831618e-18 
1.4753783196485267e-18 
1.0977553804932996e-18 
-3.0578120739929565e-18 
5.347317952120733e-18 
-7.514681714975742e-18 
1.0530678610392873e-17 
-8.2765033346044e-18 
-7.467489639589239e-18 
-3.581517799365445e-18 
-2.012981864353818e-18 
1.2449262466529505e-17 
-1.748961404892853e-17 
2.412911609963984e-17 
-2.435901781972239e-17 
2.157244747422774e-17 
5.3267324345698896e-18 
-1.835775873039192e-18 
2.154768937784448e-17 
1.706704325781967e-17 
2.2293064897610212e-17 
-5.324194846642376e-17 
1.1291747914801245e-17 
1.3668211115322037e-17 
-1.2618139219555225e-17 
-1.340361455991308e-17 
4.817183600549963e-17 
-3.164042236087137e-17 
-6.880301471080367e-18 
2.597371779170033e-17 
1.0554244489464439e-17 
-7.172263015293452e-18 
2.8052210722299895e-17 
-5.294255902292446e-17 
7.630544174027285e-17 
-1.8239285100711688e-17 
-5.207163917775389e-17 
9.380306498330776e-17 
-1.5629109805305645e-16 
1.6359460365062736e-16 
-1.1410686615493503e-16 
4.115656830043335e-17 
4.2364823429212536e-17 
-3.1685268813758504e-17 
4.3608300690731286e-17 
-7.239118659450463e-17 
5.981365486852408e-17 
-7.330364090395887e-19 
-2.9453973339495504e-17 
-4.826876623086709e-19 
-1.2928979406022792e-16 
9.481762002732358e-17 
-1.0497579427609648e-16 
-5.5273757701569656e-17 
3.1523008905402845e-16 
-2.0839415511305167e-17 
1.8975865321296275e-16 
-3.709682484880058e-16 
-7.413461307566143e-17 
8.615644498748493e-17 
-2.0015142588938606e-16 
4.461126268043599e-17 
2.8122353628078327e-17 
-5.3090628114131125e-18 
6.382943602536462e-18 
4.325651410939416e-16 
-1.0473857559302339e-16 
-5.667718650907566e-17 
-5.965491953127288e-17 
1.902980192666862e-17 
4.50585655826435e-16 
2.0551699007614308e-16 
-6.464016825336553e-18 
1.4366106551245236e-16 
-2.7633336074379647e-16 
-1.6488425275206146e-17 
4.805087145865768e-17 
-4.903489199614169e-16 
9.8864066582254e-16 
-1.1700046298360897e-15 
2.3032476622077847e-16 
9.61907469102436e-16 
-6.346504965095925e-16 
4.049134893283026e-16 
-3.2833520610862745e-16 
-2.0547714050501838e-16 
1.1905750055947461e-15 
-6.446004925727878e-16 
3.3238310944750065e-18 
-2.1555616309958181e-16 
-1.6991486997811068e-17 
8.070218020820443e-16 
5.350697745941791e-17 
9.535001528022797e-17 
-1.877058298893936e-15 
7.062164327820642e-16 
-1.769066144814684e-15 
-2.8277453516115623e-16 
2.410692889153784e-16 
-2.3389278665629574e-16 
7.261287463507885e-17 
4.996965401273727e-17 
1.769169014192316e-7 
0.00022894640951060243 
0.0007239724000979495 
4.1996570987308435e-6 
-3.718617273913022e-5 
-0.00017185431833011936 
0.557561373575074 
-4.256809009264695e-7 
2.883925153278139e-5 
4.2041345258962066e-7 
5.332069415483368e-6 
-3.957355005824468e-6 
0.0005743715326329065 
0.001082465875614385 
0.05785445479881006 
-6.086136287077117e-7 
0.00024153530864671167 
0.004069741580074182 
1.7728612008418352e-6 
-1.641522061778667e-5 
0.0002967238155730686 
0.007832184027879796 
4.261349352100704e-6 
-6.420146553064689e-5 
0.0002933358721757121 
0.034971924880764164 
-1.298746841535968e-6 
-5.7781093969197706e-5 
0.00046108371634587145 
0.006736220328132906 
-2.328218993961168e-6 
5.137002695204359e-6 
0.0005390968204574096 
-1.1598833550616964e-6 
-5.184244693276271e-6 
-0.00016203501941475088 
0.0004002645269781257 
1.937633420936824e-5 
-8.862595282496174e-6 
9.103689693027933e-5 
0.00012290328352926766 
0.00014643353087395202 
0.33134863766121536 
1.2524139142385367e-6 
0.00013841366856807933 
0.0027470937133926582 
-3.5554886326973368e-6 
-2.2462741413285644e-5 
0.00017157605455236338 
-0.0010164925786560392 
3.0169247353344925e-7 
1.6581886632356333e-5 
-5.866709995652417e-5 
0.0028404642407298623 
8.271577623970996e-6 
9.599322257032961e-6 
-7.953674105832005e-5 
1.6362539582161393e-6 
2.5385803500644768e-5 
-0.00023908090406758823 
0.0012179778544556777 
0.0021708761369868446 
0.0006366217191341487 
1.3304756033373589e-5 
-0.0002977011935870072 
1.8364308775640513e-5 
5.469835355798248e-5 
-2.6389179596600986e-7 
-8.971937778134616e-5 
-0.0009925047730867153 
0.00015168980822015377 
0.005438519072695835 
-9.558211847050169e-6 
4.7274955072250365e-7 
5.533779875630427e-6 
-3.93141579140784e-5 
3.4409188785471754e-5 
1.8023309406707176e-6 
1.035668335100345e-5 
6.131509829774198e-5 
-0.001078840847340451 
0.00018839649583430484 
0.5117883370168584 
2.0437816132888077e-6 
6.348019055241111e-5 
-0.00020403505088800755 
-2.3389767734980138e-6 
2.8510184283324487e-5 
9.640941570960432e-5 
-0.00021585022099845526 
-4.00997774955435e-6 
-5.8709247135035624e-5 
-2.2225961935863e-5 
-0.00014193243538030003 
0.20258747896079363 
1.295343424553544e-6 
-0.00016007637234424017 
0.0011734875527071227 
-0.00012807651913488257 
0.03576840174453464 
1.9542734081220555e-6 
-3.6455402558411304e-5 
-8.159774886675438e-7 
2.2295196807625568e-5 
0.00013354020355828955 
0.001574913639667054 
5.752759108306002e-6 
-0.00025707622431813304 
0.0007690945971274969 
8.491093885431154e-7 
-9.822544121312436e-6 
9.28707229336776e-5 
0.0007704758026771403 
0.00023159880381804244 
0.19842139268249864 
9.235933621182469e-7 
-6.993869357071232e-5 
0.04140627258345383 
0.0006232437832315076 
0.0106592258171029 
1.625580875450523e-5 
-0.000441481838226452 
-0.000585130907486932 
-6.732145498684448e-6 
0.00012994431095692414 
0.000188813316957838 
-2.5234197636114554e-6 
5.435211700335972e-5 
0.0004852334231895366 
0.11168029303502439 
2.2223521391608162e-6 
-3.8993548032007346e-5 
-0.0017013534074632947 
1.8169861133513987e-6 
-6.236027708060902e-7 
-3.276627118659518e-5 
0.0005738530904027654 
-4.959840010273535e-7 
1.3162278069204836e-5 
9.54167173229982e-5 
-0.0002074579066803843 
0.048129760279094165 
1.9244534057247326e-5 
-5.719084922312063e-5 
-0.0009373697315490767 
-0.0003557159388138071 
-0.00022504609183446854 
3.111862401681894e-6 
2.7665834130775533e-5 
-0.0003853068056261933 
-1.1848143385067782e-7 
6.91947434539694e-6 
7.057740428297614e-5 
-0.00019311641816932 
-7.988554986926665e-7 
1.0028222461111765e-5 
-7.149516536730227e-5 
7.968085429052662e-6 
-5.370858465660513e-6 
0.00019044386591703962 
-0.0007646830427926139 
0.0007995923765189972 
5.374913848996085e-7 
9.8686753243086e-6 
-0.00019544139964555363 
0.0003625444755566074 
-1.3506079355154237e-6 
5.292354168627153e-5 
0.0003589379945380116 
-0.0010076163610380918 
8.005077072181014e-5 
1.6781558476940485e-5 
-0.00012849016284332182 
-2.9847795289162014e-5 
-5.143283089775062e-7 
-4.2300838454434576e-5 
-5.942882416378162e-5 
0.3553589762433923 
3.5934665510732437e-6 
-0.00010350266710309764 
0.0006215864781726648 
0.8287527098043823 
1.2897267856650142e-6 
-8.749729775379436e-5 
-8.403606327759117e-7 
-2.3469896422223754e-6 
-2.916575866736274e-5 
-0.0011145649612097032 
-0.0011882281742379912 
-8.881984050776326e-8 
-5.9764562958376205e-6 
-0.00011572406681886963 
0.12190218276837786 
1.0518308133223106e-5 
1.1170287320187368e-5 
-0.0014604189738737967 
0.004581512921055552 
-2.3723572410199545e-5 
4.289231667539287e-6 
0.00043987460017141656 
0.0009422883821923227 
1.2895546984868107e-6 
-2.9429018139906646e-5 
0.00011055366393544704 
7.92606664472126e-6 
-1.6916714164487522e-5 
0.0002454781094724991 
0.001754451422084846 
-0.0003728626072772486 
8.475918571328626e-6 
-1.1917837696136767e-6 
5.5009661301349335e-5 
-1.7241504897703743e-7 
-5.898530141724537e-6 
-5.0095520296799636e-5 
0.0009356556977369729 
-0.00018040016366755723 
0.002979843017408112 
6.75339482652017e-5 
8.563992922403641e-6 
-0.00023552601824647265 
0.00014051928409967215 
-8.549341063181691e-7 
-8.921823931443353e-6 
-0.0001783398057480338 
0.0011466798357806119 
-6.727286567565259e-7 
-8.004884640050744e-5 
-0.0010031871779184098 
0.008799798333683634 
9.75865913708266e-7 
-5.1379311886794335e-5 
0.00039238949839575955 
-0.00030182862157956535 
1.445817709564243e-5 
1.7589401916068834e-5 
-0.0004532829900970291 
0.006277699422074067 
1.780559997151466e-5 
-0.000262982286896631 
-0.0005068748619872775 
0.07389474581827177 
-2.4455971767015933e-7 
-8.94005985442717e-5 
0.0004059740472213276 
-9.77776172039121e-7 
1.2066263401182299e-5 
-0.00018140929391299114 
-0.00019619728608297586 
-0.0003347161159559419 
6.011845755765471e-6 
-3.179003944308004e-5 
-6.632073702398941e-7 
-7.971490018690242e-6 
1.4122791223869693e-5 
-0.0007979143672682697 
0.0006216851217197179 
0.009305153634135756 
6.979456079432433e-6 
-1.6657950823278676e-5 
2.4209379270075916e-6 
-5.179212410301885e-5 
-1.5625500448765507e-5 
-0.0007766915605997379 
-3.819625396801646e-5 
0.0004998190498878269 
9.805171138006278e-5 
1.4138725260210253e-7 
2.7972560756823205e-6 
-0.0002203347849241348 
-2.8729518422981834e-6 
0.055436170107102244 
-6.220710545463684e-7 
-3.247385098390767e-5 
-0.00013598016866745493 
-0.000358305154746995 
2.767812152221523e-7 
3.5697331608353197e-6 
-0.0005110885588385176 
0.004987439580335486 
0.0003231524805682452 
-7.698953742629625e-6 
7.3290711941898355e-6 
-0.00010661827428275955 
0.0007532051532141909 
1.058489837758495e-6 
0.0001550396822496328 
0.0009612660193329323 
-6.055662634917907e-7 
-1.2530043763511192e-5 
-2.6412960434280985e-5 
-1.8854301722687546e-6 
4.170840907361769e-6 
0.0001649489247016307 
8.437660576908606e-5 
-2.636030509748914e-7 
-8.008380537321862e-6 
-9.346792563335454e-5 
0.00020888032812380858 
1.2175613108467336e-6 
-0.00021518498915179405 
0.0005163318048959204 
0.46258679954820087 
-4.384080337708272e-6 
1.3100295854332044e-5 
-0.00030207668507455804 
0.009908277508864693 
0.003468031507951614 
0.3087387396716642 
3.507368605170953e-7 
-2.688148728680459e-5 
0.00027288020901847183 
0.0005526540965705204 
0.6159393028241099 
-1.4370462735511646e-6 
-1.991775367315719e-5 
-0.0004284989772682746 
-3.747068589395633e-5 
1.5094954651463412e-5 
-7.285972700285989e-5 
0.005366096820322179 
0.16961561586824753 
-0.0003177721488393409 
-3.9653846082477845e-6 
-2.3038777961444866e-5 
-0.0004636401228016969 
0.004549841285112656 
1.2807600937366665e-8 
1.3689714376001558e-5 
3.757793979757246e-5 
-6.443827698037429e-5 
5.804857046238367e-5 
0.042956829834371664 
5.123820490964422e-7 
-4.60195658470403e-5 
-0.0002974772899680444 
-3.421062164732201e-7 
6.418793281069026e-5 
0.00015431150574490542 
0.08130753240894999 
-3.0082514694192924e-6 
0.00020202986341741626 
0.0007126941522027919 
-0.000920200515964561 
0.035434781090056676 
9.189299724563263e-6 
-0.00019083367090448524 
-0.00329530902181031 
-0.0003767845206567314 
0.0038554947377958068 
2.9411249921464957e-6 
-1.3479216156124442e-6 
-4.039728531314173e-6 
2.8542040307394336e-5 
6.011003967478332e-5 
0.0054191412076777965 
-1.396393969029986e-7 
2.4790034360231706e-5 
0.00010699494420630471 
0.0008191950132662783 
-1.2911165165946377e-6 
-2.0655500602773025e-5 
9.12276002645622e-5 
-0.0006744414723381569 
7.471995356397984e-5 
8.586388712158936e-6 
-2.3156344832578014e-6 
-5.81418976612006e-7 
-1.2373411532228957e-5 
-0.00011054439885411158 
-0.00031026619749744495 
-2.2860140481928564e-7 
-2.380407710498002e-5 
4.3343733839688575e-5 
0.00016931480623142946 
0.0006204282887230944 
0.20112952900784598 
7.544018331672357e-7 
-0.0001609048659202192 
0.001544151848766931 
-2.60388305786973e-6 
0.00016529896790661909 
-4.857089707823949e-6 
-3.235395427768986e-5 
0.0005812650760784544 
0.41652408496981724 
-4.840378271420797e-6 
3.749068392757134e-5 
0.0006171813468300407 
0.0010397820882488604 
9.250030703903704e-7 
7.228595588499658e-5 
0.00012076232809172136 
0.0021965060690026404 
0.0021890912887087416 
-4.096025604622932e-6 
-9.686558946259207e-5 
3.211128419061292e-6 
-6.039672343406998e-5 
-0.0001940647930109935 
0.00027307984090028513 
-3.704196471960326e-6 
-0.0005818448576934105 
0.17787635543719504 
4.8244354388664935e-6 
7.026256703839826e-5 
-0.0007319624125278428 
-2.1725349347627445e-6 
1.636009738618682e-5 
-0.00012950392234643024 
-4.394916037620045e-6 
-6.447142640850352e-5 
7.785249969421054e-5 
0.0007236824607946553 
7.998254422145412e-6 
0.00037733323713779593 
-5.42456749547618e-6 
4.77953859874582e-6 
6.709531582991449e-5 
0.0017448522426869166 
0.00010217593048651133 
0.0041350503695223055 
-3.684371482202866e-7 
1.6235455543291938e-5 
0.0010588758803898898 
-7.877185943928314e-6 
1.1453910309922667e-7 
-8.847834819625172e-6 
0.038806062376383864 
-9.362836595193147e-7 
2.8923959090238107e-5 
-0.00026426418295233135 
-7.186913232135725e-7 
-2.576938382791981e-5 
-0.000101506051772787 
0.00023459503184423126 
-0.00037106032915680456 
2.5319582719500974e-6 
-4.363554815725367e-5 
-0.0001305403391613717 
-0.002240620508393738 
-2.7384070470829497e-7 
9.720305592885827e-6 
8.512742765932708e-6 
0.0015533630669768246 
5.947207454917131e-7 
-4.058154085763338e-5 
-5.759946555884946e-5 
-8.818886294825335e-6 
-4.820966782962806e-5 
4.352409439121761e-5 
-3.3952463035720594e-6 
-1.418382418560556e-5 
-0.0003309306990445619 
-0.0002674433178162942 
-3.3209653958700914e-7 
-1.3162632903074047e-5 
-6.241580175008801e-5 
0.0008863959638119227 
0.06885294036824158 
5.4626345733447635e-6 
-0.00016028923221529952 
0.0006070332554817193 
-9.755796211577962e-7 
7.356043102263241e-6 
0.00013287864151532714 
0.02237299139494906 
0.00342282083196925 
7.150324878725986e-7 
-6.838361083025758e-6 
-0.00025828302864737 
0.18195649727861632 
-0.0006308417791759712 
4.403141940375595e-8 
-2.7583312297912444e-6 
-0.00023666123604339302 
0.011271596245410517 
-6.824732782968357e-6 
-0.00020687226582453172 
-0.0001380931581415297 
0.00034887608365424073 
4.232804567674308e-6 
1.7940582013376598e-5 
6.543179794100527e-5 
0.00017932521761579228 
-0.00266675838653119 
0.001943873943548999 
0.0007342825113332894 
6.261338264258922e-5 
0.0005097194260082839 
3.400437173700846e-6 
-1.0717016046341848e-5 
-7.760219503314795e-6 
0.00045477189188349005 
-0.00019456689037509274 
-5.124268460455472e-5 
0.2672235655443463 
0.11448203967736356 
0.11725134023050321 
-5.198883134996513e-7 
-8.976259872369774e-7 
2.927806615607187e-8 
-5.6818600880869466e-5 
4.57684278754618e-5 
4.2428554833985756e-5 
6.132089212682448e-5 
0.00023471897563481133 
-0.0003402377501793058 
-0.0021344802091120664 
0.001462607252338769 
0.00017347715093598513 
-5.614313741122504e-5 
0.004565570763373554 
0.00042000802987139446 
2.0644194025974145e-5 
-8.162759700828903e-7 
0.0001528698306882445 
-0.000109224634109399 
0.11088841598158582 
0.04867930778155927 
-8.705576975939724e-7 
-2.189984764612216e-6 
3.5543766987905325e-5 
-5.031421884423745e-5 
-6.443155733373595e-6 
1.4418115938928202e-5 
1.02694858894622e-5 
-0.0005354164549582276 
0.0003933181973807252 
0.0004476872965860315 
0.0003153355743546912 
0.00032732981577216516 
-7.796023820559183e-5 
-0.0003418646201818937 
-0.00020668221336871543 
6.36766390865105e-7 
-1.3130374594579515e-6 
1.181713491008291e-6 
-8.47405620311733e-6 
4.01869998869458e-6 
1.1475806502313173e-5 
0.00013521197718174762 
-0.00013272111610863023 
0.00015606790571680732 
0.0006527067431410129 
-0.0001355794069024047 
-4.6681458204449666e-8 
-4.8823680443993057e-8 
3.6958608927876014e-6 
-1.2793282872411654e-5 
0.00019735686073216218 
-3.86860562541372e-5 
-0.0004019116550102232 
-0.0001780940068842786 
5.636772969871115e-7 
-3.9342013988200203e-7 
1.9531740757170647e-5 
-1.626244811838263e-5 
3.064715830164302e-5 
-3.815453693732008e-5 
-0.00043782056587593775 
-1.0511471409440553e-5 
6.601791508479235e-5 
0.3822497071500175 
0.2020531522084522 
0.2837023198714154 
3.8346819015552645e-7 
-6.59300986950863e-7 
-1.5158735700064068e-6 
0.00014938138373611585 
3.343084906138468e-5 
-9.27711306464327e-5 
-1.5980284738610632e-6 
1.7754713014359877e-6 
6.10977495642993e-7 
8.058670625411941e-6 
-8.788466437154937e-6 
-7.280587457957351e-7 
0.0001178040082614025 
-3.0134333141227383e-5 
0.0002198286733006985 
8.669267580816757e-5 
-0.00013258257444988906 
0.00030511684622035065 
-7.557848742059527e-7 
1.464332616337445e-7 
-1.7488528141537746e-6 
-9.826358784696226e-7 
1.3625364959616972e-5 
-8.502789897676032e-6 
3.854394820300756e-6 
-1.0909352888626415e-5 
-0.00016010356682103654 
0.00084683705786888 
-0.0008415942101932975 
-7.761248070439717e-5 
0.00016572883187969859 
2.594910739288826e-6 
-2.1820467844171946e-5 
3.788931731892194e-5 
-1.4171896910906869e-6 
9.987519616355334e-6 
2.8572083453131433e-5 
-0.00027911476080547934 
1.0738883105447663e-5 
4.080545778365659e-6 
3.554132190166395e-6 
-9.961632331982636e-6 
-8.501035568670166e-5 
4.465368168987496e-5 
-0.0003795391751886375 
-0.0006010441256024786 
-0.0005634400301353079 
0.0012076321650017722 
-3.232507962749709e-5 
0.0005064258108554905 
-0.00012777739510850264 
-3.4041382996461285e-7 
2.771723573040797e-7 
-2.331712142589952e-5 
2.173558002217202e-5 
3.825761056810387e-5 
-7.624837325048311e-5 
-0.00016532049526157307 
0.00015530376033536756 
-8.931149815354462e-7 
8.089754566500077e-7 
-4.882948973336329e-6 
9.789609839263085e-6 
-0.0001005294525947483 
0.00013184197523203014 
5.240524532247872e-6 
-0.00017158411682371147 
0.10509428687451308 
0.07173624035127424 
1.4460211321711102e-6 
-2.16407737106429e-6 
2.738437231467532e-5 
1.908082959297568e-5 
-0.0008611369486735921 
-0.0004118460399247892 
0.0006017408294484564 
3.4616942605511565e-6 
3.4850532753635426e-6 
4.575928795083734e-6 
1.1346029902471007e-5 
-1.3769994941641676e-5 
-3.389588102850779e-7 
-9.659909871881501e-5 
-7.232353200757191e-5 
8.218960199630932e-5 
-1.3485143291256357e-5 
-1.2079760878506435e-6 
0.0014235598826235238 
2.9690972690594955e-5 
-2.808073136113997e-6 
-2.958300749209498e-7 
4.1493518157939594e-5 
-9.995603631523062e-6 
7.683602944412472e-5 
-0.00016292328042801958 
0.00041312387939232913 
0.0008335292153545689 
2.4172955815752025e-5 
3.431111811576628e-6 
-3.4578538415945656e-6 
2.6299547426135637e-6 
3.930849341946611e-6 
6.529477540019478e-5 
-4.0624135698323817e-5 
0.0003031745277972801 
0.0007202082252242052 
-0.0007509214460535519 
-6.641745930479006e-7 
6.995772447817262e-7 
4.849233620212121e-8 
-1.1487343862713484e-5 
1.5267609532774705e-5 
3.5466209158427993e-6 
7.48151016996516e-5 
0.0001493083683843586 
-6.411218606315436e-5 
-0.00021532153883530603 
0.0009945406264099323 
-0.000208296549360212 
-0.0007702884682250656 
0.0003729083771891813 
-4.4545891649027934e-8 
2.0968441587931115e-6 
1.6438628304230022e-5 
-3.3980309295726847e-6 
-7.626049507263616e-5 
1.3082785365871404e-5 
0.00012417614597020748 
0.0009380283176734705 
-0.0003375337721216478 
-0.0008221293725573175 
1.0846623817434878e-7 
4.587161369525762e-8 
8.617161676224631e-6 
-8.076842032884297e-7 