# vtk DataFile Version 3.0 
Unstructured Grid 
ASCII 
DATASET UNSTRUCTURED_GRID
POINTS 2173 float 
-0.5 -0.5 0  
0.5 -0.5 0  
0.5 0.5 0  
-0.5 0.5 0  
-0.475 -0.5 0  
-0.45 -0.5 0  
-0.425 -0.5 0  
-0.4 -0.5 0  
-0.375 -0.5 0  
-0.35 -0.5 0  
-0.325 -0.5 0  
-0.3 -0.5 0  
-0.275 -0.5 0  
-0.25 -0.5 0  
-0.225 -0.5 0  
-0.2 -0.5 0  
-0.175 -0.5 0  
-0.15 -0.5 0  
-0.125 -0.5 0  
-0.1 -0.5 0  
-0.075 -0.5 0  
-0.05 -0.5 0  
-0.025 -0.5 0  
-1.3761214e-12 -0.5 0  
0.025 -0.5 0  
0.05 -0.5 0  
0.075 -0.5 0  
0.1 -0.5 0  
0.125 -0.5 0  
0.15 -0.5 0  
0.175 -0.5 0  
0.2 -0.5 0  
0.225 -0.5 0  
0.25 -0.5 0  
0.275 -0.5 0  
0.3 -0.5 0  
0.325 -0.5 0  
0.35 -0.5 0  
0.375 -0.5 0  
0.4 -0.5 0  
0.425 -0.5 0  
0.45 -0.5 0  
0.475 -0.5 0  
0.5 -0.475 0  
0.5 -0.45 0  
0.5 -0.425 0  
0.5 -0.4 0  
0.5 -0.375 0  
0.5 -0.35 0  
0.5 -0.325 0  
0.5 -0.3 0  
0.5 -0.275 0  
0.5 -0.25 0  
0.5 -0.225 0  
0.5 -0.2 0  
0.5 -0.175 0  
0.5 -0.15 0  
0.5 -0.125 0  
0.5 -0.1 0  
0.5 -0.075 0  
0.5 -0.05 0  
0.5 -0.025 0  
0.5 -1.3761214e-12 0  
0.5 0.025 0  
0.5 0.05 0  
0.5 0.075 0  
0.5 0.1 0  
0.5 0.125 0  
0.5 0.15 0  
0.5 0.175 0  
0.5 0.2 0  
0.5 0.225 0  
0.5 0.25 0  
0.5 0.275 0  
0.5 0.3 0  
0.5 0.325 0  
0.5 0.35 0  
0.5 0.375 0  
0.5 0.4 0  
0.5 0.425 0  
0.5 0.45 0  
0.5 0.475 0  
0.475 0.5 0  
0.45 0.5 0  
0.425 0.5 0  
0.4 0.5 0  
0.375 0.5 0  
0.35 0.5 0  
0.325 0.5 0  
0.3 0.5 0  
0.275 0.5 0  
0.25 0.5 0  
0.225 0.5 0  
0.2 0.5 0  
0.175 0.5 0  
0.15 0.5 0  
0.125 0.5 0  
0.1 0.5 0  
0.075 0.5 0  
0.05 0.5 0  
0.025 0.5 0  
1.3761214e-12 0.5 0  
-0.025 0.5 0  
-0.05 0.5 0  
-0.075 0.5 0  
-0.1 0.5 0  
-0.125 0.5 0  
-0.15 0.5 0  
-0.175 0.5 0  
-0.2 0.5 0  
-0.225 0.5 0  
-0.25 0.5 0  
-0.275 0.5 0  
-0.3 0.5 0  
-0.325 0.5 0  
-0.35 0.5 0  
-0.375 0.5 0  
-0.4 0.5 0  
-0.425 0.5 0  
-0.45 0.5 0  
-0.475 0.5 0  
-0.5 0.475 0  
-0.5 0.45 0  
-0.5 0.425 0  
-0.5 0.4 0  
-0.5 0.375 0  
-0.5 0.35 0  
-0.5 0.325 0  
-0.5 0.3 0  
-0.5 0.275 0  
-0.5 0.25 0  
-0.5 0.225 0  
-0.5 0.2 0  
-0.5 0.175 0  
-0.5 0.15 0  
-0.5 0.125 0  
-0.5 0.1 0  
-0.5 0.075 0  
-0.5 0.05 0  
-0.5 0.025 0  
-0.5 1.3761214e-12 0  
-0.5 -0.025 0  
-0.5 -0.05 0  
-0.5 -0.075 0  
-0.5 -0.1 0  
-0.5 -0.125 0  
-0.5 -0.15 0  
-0.5 -0.175 0  
-0.5 -0.2 0  
-0.5 -0.225 0  
-0.5 -0.25 0  
-0.5 -0.275 0  
-0.5 -0.3 0  
-0.5 -0.325 0  
-0.5 -0.35 0  
-0.5 -0.375 0  
-0.5 -0.4 0  
-0.5 -0.425 0  
-0.5 -0.45 0  
-0.5 -0.475 0  
-0.002115384 -0.00023065208 0  
-0.20714286 -0.20714286 0  
0.20714286 -0.20714286 0  
0.20714286 0.20714286 0  
-0.20714286 0.20714286 0  
-0.28155318 -0.0017231192 0  
0.0017231192 -0.28155318 0  
0.28155318 0.0017231192 0  
-0.0017231192 0.28155318 0  
0.3319978 -0.33098683 0  
0.33098683 0.3319978 0  
-0.3319978 0.33098683 0  
-0.33098683 -0.3319978 0  
-0.14015679 -0.06698606 0  
0.06698606 -0.14015679 0  
0.14015679 0.06698606 0  
-0.06698606 0.14015679 0  
-0.1387125 -0.34573975 0  
0.34573975 -0.1387125 0  
0.1387125 0.34573975 0  
-0.34573975 0.1387125 0  
0.14046866 -0.34602854 0  
0.34602854 0.14046866 0  
-0.14046866 0.34602854 0  
-0.34602854 -0.14046866 0  
-0.05869875 -0.16617337 0  
0.18217777 -0.061504476 0  
0.062312964 0.18362015 0  
-0.18362015 0.062312964 0  
-0.034321424 -0.38563195 0  
0.38563195 -0.034321424 0  
0.034321424 0.38563195 0  
-0.38563195 0.034321424 0  
0.39586002 -0.2428538 0  
0.2428538 0.39586002 0  
-0.39586002 0.2428538 0  
-0.2428538 -0.39586002 0  
0.23688246 -0.38952246 0  
0.38952246 0.23688246 0  
-0.23688246 0.38952246 0  
-0.38952246 -0.23688246 0  
-0.24287231 -0.09948847 0  
0.09948847 -0.24287231 0  
0.24287231 0.09948847 0  
-0.09948847 0.24287231 0  
-0.11560815 -0.24300627 0  
0.24300627 -0.11560815 0  
0.11560815 0.24300627 0  
-0.24300627 0.11560815 0  
-0.40192315 -0.4008276 0  
0.4008276 -0.40192315 0  
0.40192315 0.4008276 0  
-0.4008276 0.40192315 0  
0.06409326 -0.40289903 0  
0.40289903 0.06409326 0  
-0.06409326 0.40289903 0  
-0.40289903 -0.06409326 0  
0.2962961 -0.23982804 0  
0.23982804 0.2962961 0  
-0.2962961 0.23982804 0  
-0.23982804 -0.2962961 0  
-0.28087237 -0.21196799 0  
0.21196799 -0.28087237 0  
0.28087237 0.21196799 0  
-0.21196799 0.28087237 0  
-0.0901279 0.007867504 0  
-0.05002927 -0.07494272 0  
0.0873353 -0.009871756 0  
0.0071518295 0.09216282 0  
-0.14120433 -0.1484696 0  
-0.14581114 0.13960092 0  
0.1458264 -0.14505939 0  
0.13960092 0.14581114 0  
0.41838804 -0.3182741 0  
0.3182741 0.41838804 0  
-0.41838804 0.3182741 0  
-0.3182741 -0.41838804 0  
0.32118136 -0.41712493 0  
0.41712493 0.32118136 0  
-0.32118136 0.41712493 0  
-0.41712493 -0.32118136 0  
-0.19707234 -0.014843048 0  
0.018050108 -0.20183705 0  
0.19707234 0.014843048 0  
-0.014843048 0.19707234 0  
-0.10938372 -0.41847488 0  
0.41847488 -0.10938372 0  
0.10938372 0.41847488 0  
-0.41847488 0.10938372 0  
0.15773043 -0.4267032 0  
0.4267032 0.15773043 0  
-0.15773043 0.4267032 0  
-0.4267032 -0.15773043 0  
-0.3204562 -0.07174808 0  
0.07174808 -0.3204562 0  
0.3204562 0.07174808 0  
-0.07174808 0.3204562 0  
0.02801032 -0.07269879 0  
-0.31817523 0.069836795 0  
-0.069836795 -0.31817523 0  
0.31817523 -0.069836795 0  
0.069836795 0.31817523 0  
0.43106207 -0.17757268 0  
0.17757268 0.43106207 0  
-0.43106207 0.17757268 0  
-0.17757268 -0.43106207 0  
0.0703783 0.071201205 0  
-0.051593844 0.064346604 0  
0.099701226 -0.08333426 0  
0.2863281 -0.17248559 0  
0.17248559 0.2863281 0  
-0.2863281 0.17248559 0  
-0.17248559 -0.2863281 0  
-0.2341888 0.04979648 0  
-0.049194112 -0.231281 0  
0.23358595 -0.04946041 0  
0.04979648 0.2341888 0  
-0.009939441 -0.13691185 0  
-0.26560438 -0.17864102 0  
0.17864102 -0.26560438 0  
0.26560438 0.17864102 0  
-0.17864102 0.26560438 0  
0.013302229 -0.43510666 0  
0.43510666 0.013302229 0  
-0.013302229 0.43510666 0  
-0.43510666 -0.013302229 0  
0.09432827 0.114700764 0  
-0.11539384 0.093188405 0  
-0.3413634 -0.005100272 0  
0.005100272 -0.3413634 0  
0.3413634 0.005100272 0  
-0.005100272 0.3413634 0  
-0.19817708 -0.3508856 0  
0.3508856 -0.19817708 0  
0.19817708 0.3508856 0  
-0.3508856 0.19817708 0  
-0.34100306 -0.27216324 0  
0.27216324 -0.34100306 0  
0.34100306 0.27216324 0  
-0.27216324 0.34100306 0  
-0.20269383 -0.14403741 0  
0.14393912 -0.2028372 0  
0.2026342 0.14393856 0  
-0.14393856 0.2026342 0  
-0.1030633 -0.10524017 0  
-0.4394695 -0.104853734 0  
0.104853734 -0.4394695 0  
0.4394695 0.104853734 0  
-0.104853734 0.4394695 0  
-0.44156647 -0.44156647 0  
0.44156647 -0.44156647 0  
0.44156647 0.44156647 0  
-0.44156647 0.44156647 0  
-0.2683254 -0.44465622 0  
0.44465622 -0.2683254 0  
0.2683254 0.44465622 0  
-0.44465622 0.2683254 0  
0.2654342 -0.4435478 0  
0.4435478 0.2654342 0  
-0.2654342 0.4435478 0  
-0.4435478 -0.2654342 0  
-0.27373606 -0.34534052 0  
0.34534052 -0.27373606 0  
0.27373606 0.34534052 0  
-0.34534052 0.27373606 0  
-0.05307205 -0.4481981 0  
0.4481981 -0.05307205 0  
0.05307205 0.4481981 0  
-0.4481981 0.05307205 0  
-0.35614902 -0.19390328 0  
0.19390328 -0.35614902 0  
0.35614902 0.19390328 0  
-0.19390328 0.35614902 0  
-0.14022674 -0.012452113 0  
0.14171903 0.011271359 0  
-0.01125192 0.14089845 0  
-0.19556868 -0.06932378 0  
0.070511825 -0.19668652 0  
0.19556868 0.06932378 0  
-0.06932378 0.19556868 0  
-0.24951252 -0.039742906 0  
0.04037078 -0.2503529 0  
0.24951252 0.039742906 0  
-0.039742906 0.24951252 0  
0.44100407 -0.36164257 0  
0.36164257 0.44100407 0  
-0.44100407 0.36164257 0  
-0.36164257 -0.44100407 0  
-0.4451273 -0.36589316 0  
0.36589316 -0.4451273 0  
0.4451273 0.36589316 0  
-0.36589316 0.4451273 0  
0.1121834 -0.30242515 0  
0.30242515 0.1121834 0  
-0.1121834 0.30242515 0  
-0.30242515 -0.1121834 0  
-0.115146436 -0.19087775 0  
0.19190264 -0.11309679 0  
0.11520548 0.19263776 0  
-0.19263776 0.11520548 0  
-0.08287991 -0.37025127 0  
0.37025127 -0.08287991 0  
0.08287991 0.37025127 0  
-0.37025127 0.08287991 0  
0.23791528 -0.24381089 0  
0.24381089 0.23791528 0  
-0.23791528 0.24381089 0  
-0.24381089 -0.23791528 0  
-0.44626984 -0.21174923 0  
0.21174923 -0.44626984 0  
0.44626984 0.21174923 0  
-0.21174923 0.44626984 0  
0.35174853 -0.37705234 0  
0.37705234 0.35174853 0  
-0.35174853 0.37705234 0  
-0.37705234 -0.35174853 0  
-0.048605647 -0.023262763 0  
-0.1551113 -0.21381997 0  
0.21381997 -0.1551113 0  
0.1551113 0.21381997 0  
-0.21381997 0.1551113 0  
-0.29403278 -0.30027482 0  
0.30027482 -0.29403278 0  
0.29403278 0.30027482 0  
-0.30027482 0.29403278 0  
0.12173745 -0.390654 0  
0.390654 0.12173745 0  
-0.12173745 0.390654 0  
-0.390654 -0.12173745 0  
-0.12236246 -0.2979882 0  
0.2979882 -0.12236246 0  
0.12236246 0.2979882 0  
-0.2979882 0.12236246 0  
-0.0945969 -0.046371013 0  
0.035276897 -0.027358124 0  
-0.0076714605 0.051946 0  
-0.30809116 -0.17165439 0  
0.17165439 -0.30809116 0  
0.30809116 0.17165439 0  
-0.17165439 0.30809116 0  
-0.16592422 -0.10879113 0  
0.10700909 -0.1687818 0  
0.16864619 0.10664837 0  
-0.10664837 0.16864619 0  
-0.16784625 -0.38069874 0  
0.38069874 -0.16784625 0  
0.16784625 0.38069874 0  
-0.38069874 0.16784625 0  
-0.4563872 -0.05993889 0  
0.05993889 -0.4563872 0  
0.4563872 0.05993889 0  
-0.05993889 0.4563872 0  
0.31103167 -0.37412483 0  
0.37412483 0.31103167 0  
-0.31103167 0.37412483 0  
-0.37412483 -0.31103167 0  
-0.3909646 -0.012754724 0  
0.012754724 -0.3909646 0  
0.3909646 0.012754724 0  
-0.012754724 0.3909646 0  
0.44915667 -0.21679194 0  
0.21679194 0.44915667 0  
-0.44915667 0.21679194 0  
-0.21679194 -0.44915667 0  
0.045831423 0.12033131 0  
-0.12662303 0.045442794 0  
-0.3107799 -0.37355793 0  
0.37355793 -0.3107799 0  
0.3107799 0.37355793 0  
-0.37355793 0.3107799 0  
0.04152367 0.021693805 0  
-0.08040017 -0.2675595 0  
0.26794365 -0.08044455 0  
0.080500565 0.2680441 0  
-0.2680441 0.080500565 0  
-0.13753757 -0.45578164 0  
0.45578164 -0.13753757 0  
0.13753757 0.45578164 0  
-0.45578164 0.13753757 0  
-0.05507968 -0.12135967 0  
0.14172421 -0.09428923 0  
0.2571752 -0.19664502 0  
[...]
POINT_DATA 2173 
SCALARS T float 
LOOKUP_TABLE default 
1.5034936936456627e-19 
-2.045817711585177e-18 
8.476951377562706e-18 
-3.897778191703869e-20 
7.356680487089105e-19 
8.650885950980752e-18 
1.3189613619571525e-17 
1.3010141670833535e-17 
1.3814769622101766e-17 
3.580775589365544e-18 
2.9328773373072234e-18 
1.7301779508907218e-17 
-5.716359572789733e-17 
4.292763452452453e-17 
-4.3718366550578164e-17 
2.096883760769215e-17 
2.8593230902801765e-17 
-9.917139721404641e-18 
4.579599736890676e-17 
-5.211363303548944e-17 
2.969217243305109e-17 
-1.8053268349064618e-17 
-1.9321734647016217e-17 
6.485619012700327e-18 
-5.0147659335485584e-18 
1.4126447341030735e-17 
-3.0612465290475675e-17 
2.950074200916446e-17 
-1.1069592204347957e-16 
-1.3904915267740184e-17 
1.3010466316194705e-16 
-2.317062381846006e-16 
2.0508249314019062e-16 
-5.3220350153877634e-17 
-9.171369361195404e-17 
1.961273298925433e-16 
-4.421534406264751e-17 
9.679018693181219e-17 
-4.813777601768314e-17 
-7.289834716019852e-17 
1.1105014390492232e-16 
7.146264927751394e-19 
3.614502792163569e-17 
-4.284005443282774e-17 
7.799720391161306e-18 
-1.151222186162518e-16 
1.6416726169603923e-16 
1.2913255059403657e-16 
6.634498855878047e-17 
1.632423261264602e-16 
1.8900196166212328e-16 
-8.868662874135095e-17 
3.1123825666820916e-16 
-4.0571082298906264e-16 
3.1486374234505053e-16 
-3.1440514505480172e-16 
-1.8542493802695643e-16 
2.7893092010589497e-16 
-6.645471566713733e-16 
2.5567360323840976e-16 
-2.36661914982412e-16 
-5.054439853237721e-18 
4.4793089090020745e-17 
-9.162935413168811e-17 
2.6179444667615287e-16 
-6.759455682350023e-16 
1.2941437302111306e-15 
-2.081536063315225e-16 
8.193318448829222e-16 
-4.997251279523821e-16 
4.572956151142737e-16 
-5.339340491204802e-16 
6.58614686112774e-17 
3.8288149411033904e-16 
1.1981881651160448e-15 
1.8269776194171599e-16 
5.873309874700278e-16 
9.358431950590711e-17 
-1.0741621050326859e-16 
2.7301215642026254e-16 
-8.140523427173931e-17 
-2.9775884346264656e-16 
2.8147099826948755e-16 
-1.3369626105374281e-17 
-3.5304052896075293e-16 
8.233655660622683e-17 
4.43058556808619e-17 
1.1867373609155402e-17 
9.010924002154454e-16 
2.2049093496018002e-16 
1.8227587138168312e-15 
-7.301552350242468e-16 
3.5277861421153716e-16 
-1.1875417043999626e-16 
1.9058149644935569e-16 
2.4565091894328417e-16 
-3.954149692804507e-16 
5.423044729878535e-16 
-3.0978029493285075e-16 
1.3985490673369078e-16 
2.51659023141606e-16 
-4.54923217984683e-16 
3.865918724133227e-16 
-2.7398060424499277e-16 
1.854290718593489e-17 
1.828201455177876e-18 
-7.28562417587551e-18 
-1.1292878545403216e-17 
-3.542688724576951e-18 
-3.1439745665455612e-18 
-1.7855685196340133e-19 
9.659105561274637e-19 
5.515464479046451e-19 
-7.652384606549838e-19 
1.1585442781490909e-18 
-8.127487737531251e-19 
-2.004026491840232e-18 
-2.379412438998355e-18 
1.1376604461753405e-18 
-1.5260353550022282e-18 
1.2238140417952036e-18 
-1.336984016415184e-18 
1.733760098138127e-18 
-4.2756686603254016e-19 
3.067699479405239e-18 
1.7857092820475565e-18 
6.596907229128321e-20 
1.5685777416080378e-18 
4.6234387187611786e-18 
-5.527751691053149e-19 
5.078178483021143e-18 
-2.259143483766539e-18 
1.6303263303691317e-18 
1.6121354650117904e-18 
-1.778112754742144e-18 
6.902390303431321e-18 
-3.714760097786633e-18 
2.6435368052624304e-18 
-7.976326585476114e-20 
2.9842211497174394e-18 
-4.3183907423154705e-18 
4.80523069741377e-18 
-5.327091888480906e-18 
2.2749085143656422e-18 
-6.906756829223532e-18 
-4.789327800169792e-19 
2.729486886519274e-18 
-6.492826725705316e-18 
1.1869167211095047e-17 
-1.1586535442858701e-17 
1.318862976166332e-17 
5.556500829429736e-18 
-1.473923595255489e-17 
-6.876941597557256e-18 
-1.653559941392337e-17 
-1.390101328910544e-17 
-9.314727065059022e-18 
-4.194055942654849e-18 
-6.1417251189034615e-18 
-3.012844545050584e-20 
7.046001572961152e-6 
1.559947435780518e-5 
0.00027878632088391704 
0.004153350895734692 
-2.14760976142798e-5 
2.478202147775856e-6 
-6.645812191034931e-5 
0.00020356846615744362 
0.4578803154588518 
2.3716599631269298e-5 
2.832880110538576e-5 
-1.7261557946544082e-6 
-4.414329437884252e-6 
1.3565307567189643e-7 
-9.767986900363618e-5 
0.000863844110157524 
0.022127646121723 
5.237093998076577e-5 
-0.00015518517216350062 
0.017348705764781154 
-1.4869761590894928e-6 
-0.00014012524230200545 
0.0004265979443302979 
0.001022081367625006 
1.5108136462607012e-5 
-3.894210376780205e-6 
0.0002804323221382906 
0.2768794909089924 
2.214346420455695e-6 
-1.5035257313707047e-5 
1.485524283603604e-5 
0.02378978784339162 
4.998321542653181e-6 
-0.00031271584315063306 
-0.0015661813190127455 
-3.0885739265987505e-8 
-1.4269307541377339e-5 
-5.108413152627735e-5 
-0.0004175505234154891 
3.563660609373778e-6 
-8.535670116088271e-6 
6.244319814390672e-7 
0.00012395147776023938 
0.0011841567644667675 
0.05557714601911738 
-6.594749933173366e-7 
-0.0007697386410672515 
0.2024498326521295 
4.7565092196133814e-7 
-8.174501121486228e-6 
9.648740001809613e-5 
0.00015421879417460568 
-2.1220061862498747e-6 
3.8763278347813875e-6 
-0.000508384651378988 
0.0019411927402671377 
3.3041385810155523e-6 
0.00012352142531775557 
0.00026022010053892557 
8.307349287067042e-7 
7.286242072910505e-6 
-2.058948028714006e-5 
0.00011891077448515123 
0.0009187731910616468 
-4.3956047121379875e-5 
3.2544117832883743e-6 
-1.2944117598007992e-5 
-0.0010384786504893117 
0.009496728468540482 
2.4543972277600965e-5 
0.00034736338946889854 
-0.0001328670988606911 
0.018229959212610603 
-1.0903345292761708e-5 
-0.000442655993659392 
-1.5207646675268976e-6 
-3.1471044135317505e-6 
0.00011486307556343843 
0.0010960593325811585 
7.487186841263826e-8 
-1.0699803096672885e-5 
-3.4381101785305946e-6 
-2.9861729716937972e-5 
-0.0003785822944586988 
0.3126313601982758 
-3.80270121523754e-5 
-0.00027150431182307885 
0.0009948169381908663 
-3.1629313111521836e-7 
8.181508870525513e-5 
0.00038821012767906686 
-4.860872308520945e-5 
-6.708102154316259e-6 
2.8828833583846113e-6 
-5.68361735699655e-5 
-7.434567688273742e-5 
0.06163781802558037 
-5.895082434758115e-5 
6.050560231063683e-6 
3.2080655806585087e-6 
-0.0003198527834284744 
0.21545293421810877 
-0.000381998484028394 
-0.00044751319557948866 
-1.5195082564667267e-6 
-3.240908098753793e-5 
0.0019932368051708486 
0.0006305380018581464 
0.00011376173083098474 
-0.0007069002907704005 
0.018719129288294337 
1.2032597217231051e-6 
1.851348633108314e-5 
1.8619877809184262e-6 
-1.6844290865915073e-5 
0.00012034199456256817 
0.5865547298244247 
-9.23112393957709e-6 
2.899050476084734e-7 
0.0001881036079051969 
0.0016267996240460787 
0.0005477372774377514 
-4.514716247654182e-5 
-0.00025529498911633304 
0.00017451960323714685 
4.248298626505491e-6 
0.011256606568873562 
0.00020363029298309162 
-2.1374225831433014e-6 
-7.779254551465833e-6 
-0.00016836457915874145 
0.1284955185157267 
2.871854024570956e-5 
-8.989495127724894e-5 
0.0012269974195204577 
-2.5893163043058206e-6 
7.324932277343989e-6 
-3.6301432377578996e-5 
-0.00022726704939773684 
-2.8164000875226807e-7 
-1.197480695584171e-6 
-0.00012857200047612606 
0.000350646649455136 
0.004811452302966053 
-1.245088296095462e-5 
-4.3188823808799346e-6 
3.175218569504846e-5 
0.0005406672766076077 
-6.014009604242161e-5 
-2.4423647352158945e-6 
9.874409678966479e-6 
8.323899917924546e-5 
-6.447890782450201e-7 
3.4083145295785113e-6 
-0.00019734922352652735 
-0.0008285601959320142 
-2.261717784034542e-6 
-0.00010060222451487415 
0.0007847347924757998 
1.7594096879174277e-6 
9.282334860039318e-6 
1.5588666467860382e-5 
-8.826052645248455e-5 
-0.0007190850170157241 
-2.9706287895406297e-7 
-2.930077172308736e-5 
-2.718782604353104e-5 
0.0005562739484335558 
2.3635299336145677e-6 
-5.2128643265558765e-6 
0.0002526266422499955 
0.001657196238053983 
-4.623364243960547e-5 
1.1825164044123432e-5 
0.00042647936432061795 
0.07164776171442737 
-9.022809057702668e-6 
-7.236837920889269e-5 
-0.0003852271027085376 
0.09535102306708222 
-1.2077703757055938e-6 
-8.579284788738345e-6 
-0.0003353324267503008 
0.3207032815876799 
2.4250691747908388e-5 
0.0005374851230000939 
-2.4636604489820546e-6 
-7.598448159897019e-6 
-2.1137888575332755e-6 
8.77725202429809e-5 
0.0003233646974449457 
-1.2982067523637454e-6 
0.0002004581092113872 
0.001445075762353733 
0.019702080260290994 
5.67547875590425e-7 
-3.42427896385682e-7 
-6.987618118529895e-5 
0.12460490243443163 
-1.558304941422403e-5 
2.5557514366388993e-5 
-0.00015248250515514288 
0.02934910100533102 
-4.778053900628735e-7 
-0.0003152183594703592 
-0.0016953732643199331 
-2.0760021816486437e-5 
-1.149574177282635e-5 
1.1585419805141795e-6 
-6.240781875000309e-5 
0.0004418804636974649 
2.134431836575858e-6 
-0.00011257476193585048 
2.508076952650401e-6 
-1.1349619330160098e-7 
3.068272902956291e-6 
3.2648946464641276e-6 
-2.9086883550211363e-5 
0.00023795166613376474 
0.04110297305223488 
-1.4706572225639322e-5 
9.714971451525009e-6 
0.00013791604788913097 
-0.0005819397235547106 
-9.195412539823857e-7 
5.2957062166845505e-5 
-0.00031429509266336285 
5.173051581191983e-5 
-2.521921333079694e-6 
4.925511832505116e-5 
-0.00018606212339791504 
0.0987897482763009 
-1.5851647930475664e-6 
8.08698380347747e-6 
1.092757032201644e-5 
0.0004287873135758041 
-9.123504545833082e-6 
0.00018587872395458465 
0.0021492497232523146 
0.0003435077206938374 
-3.102309088867157e-7 
0.0002820789440737855 
0.0012305471820425811 
0.012820216835662248 
-2.5077948419926345e-5 
0.00014978715080352648 
0.0018720868788513366 
-3.652304361757866e-7 
-2.6031746890232865e-6 
-1.559879051164503e-8 
-0.0004254794584963602 
-0.0001871057341563362 
-1.4940345545235553e-5 
0.00039104886365012886 
5.504169014835207e-7 
-4.905051814036214e-7 
-5.815035239818117e-9 
0.00012900909858585944 
-0.00028355898410955204 
0.014632872003339188 
-0.00014883090876317837 
-0.00011005839791939266 
-1.2077164752793083e-6 
3.646251920832029e-5 
0.036781217409175074 
1.7925707857931854e-6 
1.55829751141014e-5 
-0.0001745144539272843 
-0.00048419977284706986 
-5.562735276509342e-7 
-9.407563648007368e-5 
5.443252097421071e-5 
0.00040748149477964755 
0.40575099564251205 
-9.298156936273953e-7 
1.644291195505506e-5 
0.00019064145818197803 
-1.472473947231888e-5 
-2.600528415009707e-6 
-5.047021944663134e-5 
0.00023098394229305305 
0.0004047324068478794 
0.006122945851868783 
-2.849211278004121e-6 
-1.4530340444313548e-5 
0.0003850107408426522 
2.570531493722035e-7 
-8.31470519357474e-6 
-0.00014977429649907012 
3.1852083037453594e-5 
-4.4326398103825185e-7 
-0.00010605369325293517 
0.00045509607705299934 
-2.183914683675371e-6 
-2.3584822760203364e-5 
2.496737192567621e-5 
-0.0003055232689495842 
8.84298170617047e-8 
-4.724546100038712e-6 
-0.0006254627191157041 
0.009943813178036887 
4.377198038431131e-6 
-9.446693835948418e-5 
-0.0004527323932723287 
0.1146538028226621 
3.3484474678431475e-6 
-0.00014799494860176176 
-1.920734380203482e-6 
8.175304343721621e-5 
-0.0004123198200219934 
0.4438197159636375 
2.748366062755888e-6 
-1.131265401726527e-5 
1.7593595866089466e-6 
0.000162041534538244 
0.5785804409235923 
-5.381442474683175e-6 
0.0002003249195675379 
0.0003653206229154866 
-4.186885916262635e-6 
-0.0002029467969402558 
-7.527437836896966e-5 
-7.626607996609763e-5 
0.0017544132863196067 
-0.00015792161370449163 
-5.315604025313247e-6 
-8.051474357096258e-6 
-0.00013935661391807947 
0.0001523850518792496 
-1.4657403139918476e-6 
3.577239035203948e-6 
1.0958110816636489e-6 
6.11190728892133e-5 
0.00021198358155112242 
0.13257241908089062 
1.2002633829221509e-5 
1.8688743981668784e-5 
0.0004920416247611454 
-1.9748300542896502e-6 
-3.922196386063687e-5 
-0.000429896401230673 
0.04491291902706233 
-3.1158665488537604e-6 
-3.9729988824034256e-6 
0.0001919317195800248 
0.0004152661486331609 
0.009851144223305118 
1.3464007739775953e-6 
0.0001642694778551716 
5.6131123597840006e-5 
0.011668724448220867 
-0.00010593037080476048 
-2.6507892193483896e-5 
-1.1910749935318687e-6 
1.5503662496547218e-6 
1.7261333025727363e-5 
-0.0005312370601881864 
0.007413184131988848 
5.062918987218828e-7 
1.9876162651161854e-5 
7.683543939413138e-5 
0.0002889044200346943 
2.7989613885988946e-6 
-2.100339712054448e-6 
0.00010376452946543148 
0.00010982320889106835 
1.743276750547797e-6 
5.445972567271796e-5 
6.959124647635208e-5 
1.0520623117683787e-7 
-6.061699180369175e-6 
3.350339880864884e-5 
1.3541386886244688e-5 
6.70963667673327e-7 
1.6076197221368682e-7 
2.954997582451801e-6 
9.319537014904178e-5 
-0.0003243386414142541 
0.47830425584626896 
-1.9750965288714187e-6 
0.0006887788043042613 
0.10874759437507021 
0.07169686767538233 
-5.4097958890237865e-6 
2.668773393045642e-6 
-9.824972849349395e-5 
-0.00014188566173872563 
0.1870425590006627 
-4.430812719700187e-6 
2.7078740325617668e-5 
-0.00010005871707600334 
0.004591035395406102 
-0.0005545145839298194 
-1.0470409468914482e-5 
0.0001145715728533343 
0.00039577817388393135 
1.5813941347847256e-5 
0.00029711402312397275 
-0.0003695189464780244 
1.897485730289591e-6 
2.5314710875673358e-5 
0.0015457152659883585 
1.3908002224792541e-5 
-0.00028223625389654463 
0.0020880438344447008 
0.028931126865502733 
1.1933099344788046e-5 
-0.00018377719059228865 
-0.00035051304341861484 
4.854449303609002e-6 
-0.00032827830215818144 
0.050816083791230614 
-4.130413691639869e-6 
3.339472386225859e-5 
-0.00015684641921089463 
0.001890707792752968 
-0.00010251450554221806 
-0.001642990938549991 
-2.6996335148795715e-6 
-3.529461180340158e-6 
-6.244926271137523e-6 
1.0229514337548419e-5 
-0.00030188890267062677 
0.06268596492051569 
7.191443762916071e-6 
4.329388805024297e-5 
-0.001032456475737968 
-1.5892110945597388e-5 
8.553282845778382e-6 
0.0007402014278022047 
0.374634495935665 
4.0947098260323675e-6 
8.175846152530864e-5 
-0.00035689009195673124 
-6.81390944085318e-7 
-3.4093746785897823e-7 
3.370363492404497e-5 
-9.768666370872849e-5 
-0.00014752173651939765 
8.777543075524901e-7 
-1.1795905360047904e-5 
0.00012178662100903787 
0.010671060496257575 
-2.8071817363132923e-6 
-1.3066393717207603e-5 
-0.00010058819431982601 
0.0021796544213166483 
-2.0226083655007275e-7 
0.00537247312262618 
0.0030216666813511167 
-0.00011090827946414853 
-0.0008185277758350025 
3.339963311927548e-6 
-2.65913417385759e-6 
3.4485306374051825e-7 
2.773886134872683e-5 
0.0001119334049409291 
9.357673497132186e-7 
-1.217267833195535e-5 
-0.00028232399436046535 
0.00048307872652456746 
0.006764340044272966 
-2.505580062546373e-6 
-0.00019584566102184758 
0.21488221836766586 
1.6520762046220103e-5 
-8.959736240768474e-5 
4.8559905936421435e-5 
-0.0003226684512079339 
-0.00015553338276256653 
-6.366785843617207e-7 
1.0319057832849758e-5 
-1.061570298176484e-5 
2.2047591150754847e-5 
-8.829756536051276e-5 
-5.907579605009005e-7 
-5.948729962590348e-6 
0.005929654497251562 
0.00063344185303535 
6.952178351372959e-6 
4.754872181499579e-5 
0.00016874005141993893 
0.003287119689712165 
4.04948176153008e-6 
3.0839651520036188e-6 
3.418216450874853e-5 
-2.2725859078059365e-6 
0.00017924582812264912 
-0.0007272206709182734 
0.00026282328665055206 
0.012375840533165363 
0.07511467824513936 
0.03646399648026676 
-1.3608796362073027e-5 
-1.5463894610447426e-5 
-2.3372060887410808e-5 
8.692751479761432e-6 
-3.067801516413617e-5 
8.409077049430123e-6 
0.0002515386856587157 
-0.0004033141952284518 
-0.0002995547808746275 
0.5368811843867293 
0.36887757727685944 
0.4442711031919556 
-3.9818175673490955e-7 
7.585004892301392e-7 
-8.136262546854863e-7 
-3.7840650764590375e-6 
-4.997888192312111e-6 
0.00023233673807568564 
-2.150511299050172e-5 
-0.00035570319078027517 
0.00018822503212925928 
0.01187980923580198 
0.044518947306664565 
-1.8422118595573208e-6 
-2.1335631064930015e-6 
-1.696116708533979e-6 
-8.25335637322194e-6 
0.00041750592474955816 
-0.0002171560451671773 
0.4833156811274686 
0.3498187153778611 
0.005515320362859663 
0.029605783537399892 
0.010767320600699452 
-3.3903810966926436e-6 
1.1831657909873639e-5 
-1.0090073253035155e-5 
-1.1788145759711995e-5 
-4.711552567155565e-6 
6.318300078223183e-6 
-3.1028647370607995e-6 
6.081017999159235e-6 
-8.603237434509482e-5 
-2.3971498251429716e-5 
0.0002626176776582224 
0.0008948326657662269 
0.00020565994919800057 
-0.0003069497672600271 
-1.2717532623167845e-6 
-2.5612548917235486e-6 
7.199499241379365e-7 
7.077968565505854e-6 
5.794141516048697e-6 
-3.6633939725565893e-6 
3.663122126926818e-5 
-0.00030142916549911336 
6.653083479313417e-5 
-1.9242344859997372e-7 
1.4960618301336834e-6 
2.7098113890604553e-6 
7.217514752081964e-6 
1.3129649563002828e-5 
8.65633103051924e-5 
-1.5100433258288002e-5 
2.8417000320854335e-5 
-6.563034263257588e-7 
1.6866904623077925e-6 
-1.292156125927103e-6 
-4.227478241523764e-6 
5.334209036965397e-6 
-5.241189536919737e-5 
4.751999908656177e-6 
1.718777052818728e-5 
0.0004912996378492174 
-0.00029608203712488826 
-0.00025738445925382793 
0.4992335742062965 
0.2901183059157651 
0.2806497319892567 
-2.370944923647582e-5 
3.308891519622929e-5 
8.143982132876802e-5 
0.000836037441713447 
-0.00026832668836596584 
8.154798061314624e-5 
-1.5696122117318828e-7 
-3.1696057782518016e-7 
1.6293980353875847e-6 
-2.4967121844856087e-5 
2.704395048864272e-6 
7.910508715187543e-6 
-8.237058860773899e-5 
0.0001251946991596213 
5.87732683536462e-5 
-0.0005876036732777703 
0.0004884165063444201 
-0.00020356388918621723 
2.862058302050723e-7 
-9.285786358907633e-7 
-2.6496392218561223e-7 
6.624282180494779e-6 
-1.2899036425761241e-5 
-4.459522371419178e-6 
1.588471640541868e-5 
0.00011090710646156164 
-0.0003477598686955585 
2.230873270841844e-6 
1.3395715751774325e-5 
0.00010809027963087517 
-4.230009255167075e-7 
-6.136177618288882e-6 
0.00016356464030088617 
-6.811273807191721e-5 
0.00029344874133202444 
0.00034236421482687987 
3.5142197785794033e-6 
6.321577512682165e-7 
-2.609836620681437e-6 
3.614503559293237e-6 
1.0114219458144643e-5 
-6.655104314070554e-6 
-9.30824412012809e-6 
5.2421455732822765e-6 
1.9175007423166012e-6 
-4.4739716208610586e-5 
1.5170931655538489e-5 
-0.00013100723686477228 
-0.0003088433071560087 
1.1596250054033474e-6 
2.0776335266222792e-7 
-1.2820815404201094e-6 
5.9512382503209005e-6 
8.480280672311635e-5 
7.057862030180173e-5 
7.629479609307079e-5 
-8.284330920005474e-5 
1.2723028101597298e-6 
1.3839736854665281e-6 
-5.609173885941778e-7 
3.619267959373725e-6 
-3.812231787288474e-5 
-3.228979301031024e-5 
-0.0006341547520020474 
0.0007435378040454834 
0.28961440474131855 
0.14543761049207857 
1.4187379770106511e-5 
-6.351529844882441e-6 
-9.862724571195338e-6 
-5.76788376389205e-5 
1.5302619186485183e-5 
8.173667136506375e-5 
-0.0002589007529845294 
0.00022193619758696428 
0.0008704633340082898 
2.08450963311344e-6 
2.2115670286658373e-6 
-1.109276993963341e-6 
0.009988045250782486 
0.0014073576692723653 
-3.744353015727826e-5 
-1.4840202081448724e-5 
-0.0003239426931447432 
0.00022585954426392618 
-0.0005818209175929448 
0.0007483466221731655 
-1.244729065558907e-6 
-8.18404293537637e-7 
-2.538113630448479e-5 
1.8304930754046426e-5 
-6.250286248395434e-5 
0.0009962454956145624 
-0.00025981603361889836 
-0.0008971186146661961 
3.442990741050771e-5 
0.00016295730507914923 
-2.842159844896432e-5 
8.210439261432549e-8 
3.264182644998349e-6 
3.0954766217638302e-6 
-4.4080526044344225e-5 
0.00010618272432359006 
-9.783435979920161e-5 
0.00027704411992393813 
-1.3344329633294894e-5 
-9.361961056181766e-5 
5.768592057327567e-7 
3.453930541255316e-8 
6.390767625446313e-7 
8.144145674192637e-6 
3.80784303217553e-6 
1.5839999342470913e-5 
6.7538123408696435e-6 
3.057686256495808e-7 
9.969138833281105e-5 
-7.850009807785812e-5 
0.00014843680912342036 
0.0002180902066365507 
1.7247407651185329e-6 
-1.303095742302425e-6 
9.38796540000953e-6 
2.1064156065058958e-5 
-1.8352450505485496e-5 
-1.5872925976989042e-5 
5.579384701666617e-5 
9.599217488479709e-5 
0.00012388277237487068 
0.0001996647905745999 