# vtk DataFile Version 3.0 
Unstructured Grid 
ASCII 
DATASET UNSTRUCTURED_GRID
POINTS 2173 float 
-0.5 -0.5 0  
0.5 -0.5 0  
0.5 0.5 0  
-0.5 0.5 0  
-0.475 -0.5 0  
-0.45 -0.5 0  
-0.425 -0.5 0  
-0.4 -0.5 0  
-0.375 -0.5 0  
-0.35 -0.5 0  
-0.325 -0.5 0  
-0.3 -0.5 0  
-0.275 -0.5 0  
-0.25 -0.5 0  
-0.225 -0.5 0  
-0.2 -0.5 0  
-0.175 -0.5 0  
-0.15 -0.5 0  
-0.125 -0.5 0  
-0.1 -0.5 0  
-0.075 -0.5 0  
-0.05 -0.5 0  
-0.025 -0.5 0  
-1.3761214e-12 -0.5 0  
0.025 -0.5 0  
0.05 -0.5 0  
0.075 -0.5 0  
0.1 -0.5 0  
0.125 -0.5 0  
0.15 -0.5 0  
0.175 -0.5 0  
0.2 -0.5 0  
0.225 -0.5 0  
0.25 -0.5 0  
0.275 -0.5 0  
0.3 -0.5 0  
0.325 -0.5 0  
0.35 -0.5 0  
0.375 -0.5 0  
0.4 -0.5 0  
0.425 -0.5 0  
0.45 -0.5 0  
0.475 -0.5 0  
0.5 -0.475 0  
0.5 -0.45 0  
0.5 -0.425 0  
0.5 -0.4 0  
0.5 -0.375 0  
0.5 -0.35 0  
0.5 -0.325 0  
0.5 -0.3 0  
0.5 -0.275 0  
0.5 -0.25 0  
0.5 -0.225 0  
0.5 -0.2 0  
0.5 -0.175 0  
0.5 -0.15 0  
0.5 -0.125 0  
0.5 -0.1 0  
0.5 -0.075 0  
0.5 -0.05 0  
0.5 -0.025 0  
0.5 -1.3761214e-12 0  
0.5 0.025 0  
0.5 0.05 0  
0.5 0.075 0  
0.5 0.1 0  
0.5 0.125 0  
0.5 0.15 0  
0.5 0.175 0  
0.5 0.2 0  
0.5 0.225 0  
0.5 0.25 0  
0.5 0.275 0  
0.5 0.3 0  
0.5 0.325 0  
0.5 0.35 0  
0.5 0.375 0  
0.5 0.4 0  
0.5 0.425 0  
0.5 0.45 0  
0.5 0.475 0  
0.475 0.5 0  
0.45 0.5 0  
0.425 0.5 0  
0.4 0.5 0  
0.375 0.5 0  
0.35 0.5 0  
0.325 0.5 0  
0.3 0.5 0  
0.275 0.5 0  
0.25 0.5 0  
0.225 0.5 0  
0.2 0.5 0  
0.175 0.5 0  
0.15 0.5 0  
0.125 0.5 0  
0.1 0.5 0  
0.075 0.5 0  
0.05 0.5 0  
0.025 0.5 0  
1.3761214e-12 0.5 0  
-0.025 0.5 0  
-0.05 0.5 0  
-0.075 0.5 0  
-0.1 0.5 0  
-0.125 0.5 0  
-0.15 0.5 0  
-0.175 0.5 0  
-0.2 0.5 0  
-0.225 0.5 0  
-0.25 0.5 0  
-0.275 0.5 0  
-0.3 0.5 0  
-0.325 0.5 0  
-0.35 0.5 0  
-0.375 0.5 0  
-0.4 0.5 0  
-0.425 0.5 0  
-0.45 0.5 0  
-0.475 0.5 0  
-0.5 0.475 0  
-0.5 0.45 0  
-0.5 0.425 0  
-0.5 0.4 0  
-0.5 0.375 0  
-0.5 0.35 0  
-0.5 0.325 0  
-0.5 0.3 0  
-0.5 0.275 0  
-0.5 0.25 0  
-0.5 0.225 0  
-0.5 0.2 0  
-0.5 0.175 0  
-0.5 0.15 0  
-0.5 0.125 0  
-0.5 0.1 0  
-0.5 0.075 0  
-0.5 0.05 0  
-0.5 0.025 0  
-0.5 1.3761214e-12 0  
-0.5 -0.025 0  
-0.5 -0.05 0  
-0.5 -0.075 0  
-0.5 -0.1 0  
-0.5 -0.125 0  
-0.5 -0.15 0  
-0.5 -0.175 0  
-0.5 -0.2 0  
-0.5 -0.225 0  
-0.5 -0.25 0  
-0.5 -0.275 0  
-0.5 -0.3 0  
-0.5 -0.325 0  
-0.5 -0.35 0  
-0.5 -0.375 0  
-0.5 -0.4 0  
-0.5 -0.425 0  
-0.5 -0.45 0  
-0.5 -0.475 0  
-0.002115384 -0.00023065208 0  
-0.20714286 -0.20714286 0  
0.20714286 -0.20714286 0  
0.20714286 0.20714286 0  
-0.20714286 0.20714286 0  
-0.28155318 -0.0017231192 0  
0.0017231192 -0.28155318 0  
0.28155318 0.0017231192 0  
-0.0017231192 0.28155318 0  
0.3319978 -0.33098683 0  
0.33098683 0.3319978 0  
-0.3319978 0.33098683 0  
-0.33098683 -0.3319978 0  
-0.14015679 -0.06698606 0  
0.06698606 -0.14015679 0  
0.14015679 0.06698606 0  
-0.06698606 0.14015679 0  
-0.1387125 -0.34573975 0  
0.34573975 -0.1387125 0  
0.1387125 0.34573975 0  
-0.34573975 0.1387125 0  
0.14046866 -0.34602854 0  
0.34602854 0.14046866 0  
-0.14046866 0.34602854 0  
-0.34602854 -0.14046866 0  
-0.05869875 -0.16617337 0  
0.18217777 -0.061504476 0  
0.062312964 0.18362015 0  
-0.18362015 0.062312964 0  
-0.034321424 -0.38563195 0  
0.38563195 -0.034321424 0  
0.034321424 0.38563195 0  
-0.38563195 0.034321424 0  
0.39586002 -0.2428538 0  
0.2428538 0.39586002 0  
-0.39586002 0.2428538 0  
-0.2428538 -0.39586002 0  
0.23688246 -0.38952246 0  
0.38952246 0.23688246 0  
-0.23688246 0.38952246 0  
-0.38952246 -0.23688246 0  
-0.24287231 -0.09948847 0  
0.09948847 -0.24287231 0  
0.24287231 0.09948847 0  
-0.09948847 0.24287231 0  
-0.11560815 -0.24300627 0  
0.24300627 -0.11560815 0  
0.11560815 0.24300627 0  
-0.24300627 0.11560815 0  
-0.40192315 -0.4008276 0  
0.4008276 -0.40192315 0  
0.40192315 0.4008276 0  
-0.4008276 0.40192315 0  
0.06409326 -0.40289903 0  
0.40289903 0.06409326 0  
-0.06409326 0.40289903 0  
-0.40289903 -0.06409326 0  
0.2962961 -0.23982804 0  
0.23982804 0.2962961 0  
-0.2962961 0.23982804 0  
-0.23982804 -0.2962961 0  
-0.28087237 -0.21196799 0  
0.21196799 -0.28087237 0  
0.28087237 0.21196799 0  
-0.21196799 0.28087237 0  
-0.0901279 0.007867504 0  
-0.05002927 -0.07494272 0  
0.0873353 -0.009871756 0  
0.0071518295 0.09216282 0  
-0.14120433 -0.1484696 0  
-0.14581114 0.13960092 0  
0.1458264 -0.14505939 0  
0.13960092 0.14581114 0  
0.41838804 -0.3182741 0  
0.3182741 0.41838804 0  
-0.41838804 0.3182741 0  
-0.3182741 -0.41838804 0  
0.32118136 -0.41712493 0  
0.41712493 0.32118136 0  
-0.32118136 0.41712493 0  
-0.41712493 -0.32118136 0  
-0.19707234 -0.014843048 0  
0.018050108 -0.20183705 0  
0.19707234 0.014843048 0  
-0.014843048 0.19707234 0  
-0.10938372 -0.41847488 0  
0.41847488 -0.10938372 0  
0.10938372 0.41847488 0  
-0.41847488 0.10938372 0  
0.15773043 -0.4267032 0  
0.4267032 0.15773043 0  
-0.15773043 0.4267032 0  
-0.4267032 -0.15773043 0  
-0.3204562 -0.07174808 0  
0.07174808 -0.3204562 0  
0.3204562 0.07174808 0  
-0.07174808 0.3204562 0  
0.02801032 -0.07269879 0  
-0.31817523 0.069836795 0  
-0.069836795 -0.31817523 0  
0.31817523 -0.069836795 0  
0.069836795 0.31817523 0  
0.43106207 -0.17757268 0  
0.17757268 0.43106207 0  
-0.43106207 0.17757268 0  
-0.17757268 -0.43106207 0  
0.0703783 0.071201205 0  
-0.051593844 0.064346604 0  
0.099701226 -0.08333426 0  
0.2863281 -0.17248559 0  
0.17248559 0.2863281 0  
-0.2863281 0.17248559 0  
-0.17248559 -0.2863281 0  
-0.2341888 0.04979648 0  
-0.049194112 -0.231281 0  
0.23358595 -0.04946041 0  
0.04979648 0.2341888 0  
-0.009939441 -0.13691185 0  
-0.26560438 -0.17864102 0  
0.17864102 -0.26560438 0  
0.26560438 0.17864102 0  
-0.17864102 0.26560438 0  
0.013302229 -0.43510666 0  
0.43510666 0.013302229 0  
-0.013302229 0.43510666 0  
-0.43510666 -0.013302229 0  
0.09432827 0.114700764 0  
-0.11539384 0.093188405 0  
-0.3413634 -0.005100272 0  
0.005100272 -0.3413634 0  
0.3413634 0.005100272 0  
-0.005100272 0.3413634 0  
-0.19817708 -0.3508856 0  
0.3508856 -0.19817708 0  
0.19817708 0.3508856 0  
-0.3508856 0.19817708 0  
-0.34100306 -0.27216324 0  
0.27216324 -0.34100306 0  
0.34100306 0.27216324 0  
-0.27216324 0.34100306 0  
-0.20269383 -0.14403741 0  
0.14393912 -0.2028372 0  
0.2026342 0.14393856 0  
-0.14393856 0.2026342 0  
-0.1030633 -0.10524017 0  
-0.4394695 -0.104853734 0  
0.104853734 -0.4394695 0  
0.4394695 0.104853734 0  
-0.104853734 0.4394695 0  
-0.44156647 -0.44156647 0  
0.44156647 -0.44156647 0  
0.44156647 0.44156647 0  
-0.44156647 0.44156647 0  
-0.2683254 -0.44465622 0  
0.44465622 -0.2683254 0  
0.2683254 0.44465622 0  
-0.44465622 0.2683254 0  
0.2654342 -0.4435478 0  
0.4435478 0.2654342 0  
-0.2654342 0.4435478 0  
-0.4435478 -0.2654342 0  
-0.27373606 -0.34534052 0  
0.34534052 -0.27373606 0  
0.27373606 0.34534052 0  
-0.34534052 0.27373606 0  
-0.05307205 -0.4481981 0  
0.4481981 -0.05307205 0  
0.05307205 0.4481981 0  
-0.4481981 0.05307205 0  
-0.35614902 -0.19390328 0  
0.19390328 -0.35614902 0  
0.35614902 0.19390328 0  
-0.19390328 0.35614902 0  
-0.14022674 -0.012452113 0  
0.14171903 0.011271359 0  
-0.01125192 0.14089845 0  
-0.19556868 -0.06932378 0  
0.070511825 -0.19668652 0  
0.19556868 0.06932378 0  
-0.06932378 0.19556868 0  
-0.24951252 -0.039742906 0  
0.04037078 -0.2503529 0  
0.24951252 0.039742906 0  
-0.039742906 0.24951252 0  
0.44100407 -0.36164257 0  
0.36164257 0.44100407 0  
-0.44100407 0.36164257 0  
-0.36164257 -0.44100407 0  
-0.4451273 -0.36589316 0  
0.36589316 -0.4451273 0  
0.4451273 0.36589316 0  
-0.36589316 0.4451273 0  
0.1121834 -0.30242515 0  
0.30242515 0.1121834 0  
-0.1121834 0.30242515 0  
-0.30242515 -0.1121834 0  
-0.115146436 -0.19087775 0  
0.19190264 -0.11309679 0  
0.11520548 0.19263776 0  
-0.19263776 0.11520548 0  
-0.08287991 -0.37025127 0  
0.37025127 -0.08287991 0  
0.08287991 0.37025127 0  
-0.37025127 0.08287991 0  
0.23791528 -0.24381089 0  
0.24381089 0.23791528 0  
-0.23791528 0.24381089 0  
-0.24381089 -0.23791528 0  
-0.44626984 -0.21174923 0  
0.21174923 -0.44626984 0  
0.44626984 0.21174923 0  
-0.21174923 0.44626984 0  
0.35174853 -0.37705234 0  
0.37705234 0.35174853 0  
-0.35174853 0.37705234 0  
-0.37705234 -0.35174853 0  
-0.048605647 -0.023262763 0  
-0.1551113 -0.21381997 0  
0.21381997 -0.1551113 0  
0.1551113 0.21381997 0  
-0.21381997 0.1551113 0  
-0.29403278 -0.30027482 0  
0.30027482 -0.29403278 0  
0.29403278 0.30027482 0  
-0.30027482 0.29403278 0  
0.12173745 -0.390654 0  
0.390654 0.12173745 0  
-0.12173745 0.390654 0  
-0.390654 -0.12173745 0  
-0.12236246 -0.2979882 0  
0.2979882 -0.12236246 0  
0.12236246 0.2979882 0  
-0.2979882 0.12236246 0  
-0.0945969 -0.046371013 0  
0.035276897 -0.027358124 0  
-0.0076714605 0.051946 0  
-0.30809116 -0.17165439 0  
0.17165439 -0.30809116 0  
0.30809116 0.17165439 0  
-0.17165439 0.30809116 0  
-0.16592422 -0.10879113 0  
0.10700909 -0.1687818 0  
0.16864619 0.10664837 0  
-0.10664837 0.16864619 0  
-0.16784625 -0.38069874 0  
0.38069874 -0.16784625 0  
0.16784625 0.38069874 0  
-0.38069874 0.16784625 0  
-0.4563872 -0.05993889 0  
0.05993889 -0.4563872 0  
0.4563872 0.05993889 0  
-0.05993889 0.4563872 0  
0.31103167 -0.37412483 0  
0.37412483 0.31103167 0  
-0.31103167 0.37412483 0  
-0.37412483 -0.31103167 0  
-0.3909646 -0.012754724 0  
0.012754724 -0.3909646 0  
0.3909646 0.012754724 0  
-0.012754724 0.3909646 0  
0.44915667 -0.21679194 0  
0.21679194 0.44915667 0  
-0.44915667 0.21679194 0  
-0.21679194 -0.44915667 0  
0.045831423 0.12033131 0  
-0.12662303 0.045442794 0  
-0.3107799 -0.37355793 0  
0.37355793 -0.3107799 0  
0.3107799 0.37355793 0  
-0.37355793 0.3107799 0  
0.04152367 0.021693805 0  
-0.08040017 -0.2675595 0  
0.26794365 -0.08044455 0  
0.080500565 0.2680441 0  
-0.2680441 0.080500565 0  
-0.13753757 -0.45578164 0  
0.45578164 -0.13753757 0  
0.13753757 0.45578164 0  
-0.45578164 0.13753757 0  
-0.05507968 -0.12135967 0  
0.14172421 -0.09428923 0  
0.2571752 -0.19664502 0  
[...]
POINT_DATA 2173 
SCALARS T float 
LOOKUP_TABLE default 
-5.770624772525013e-19 
1.844124191578257e-17 
4.942240437101901e-20 
2.4740144677286306e-19 
-1.1954910936454239e-17 
-4.8161043342597136e-17 
-1.2129175628597699e-16 
5.781864518795704e-18 
1.5801754481981347e-16 
2.8026895081416195e-16 
3.910918539356336e-16 
1.890544421104882e-16 
-5.670762573072657e-17 
2.7007486761647347e-16 
-3.869671727935797e-16 
1.9852747212761644e-16 
-9.318628270132166e-17 
-1.4507260918166997e-16 
1.0369687390983093e-16 
-1.4022180595787212e-16 
-4.446386759130539e-16 
-1.506778748729941e-16 
7.267885814211875e-16 
-4.686087195977152e-16 
2.1007708628646126e-16 
1.3574424945323056e-16 
-1.1722692807417832e-15 
2.180148128833727e-15 
-3.314417836341208e-16 
1.044219659941236e-15 
-2.5219860536673674e-16 
4.045631085552323e-16 
3.779667439767799e-16 
-2.2952555593604634e-16 
-1.9045291841002574e-16 
7.957185117604704e-16 
3.2466143808385087e-16 
-1.2983610066771903e-16 
-1.0312936023658884e-16 
-8.231459192917542e-17 
-1.7325979468307604e-17 
-1.178212002847153e-16 
-2.621408271818001e-16 
2.711022617846403e-16 
-7.48566400361054e-17 
7.845460712809492e-17 
-2.242375467910791e-16 
-1.321316309241538e-16 
-4.516108308595203e-17 
7.791698910519546e-16 
7.277901221879172e-16 
1.7488824173079249e-15 
-3.4144239920266756e-16 
1.0946288766593944e-16 
-2.1804824963179026e-16 
4.155116763558896e-17 
2.2196763530741182e-16 
-2.0674412012520522e-16 
3.7151124738608895e-16 
-2.997560503456863e-16 
1.5695321029403164e-17 
3.850286190163787e-16 
-6.879153414546954e-16 
5.875545598768526e-16 
-4.1582549665548557e-16 
3.4195701089693705e-17 
-3.60766346741236e-18 
-6.267257555069968e-18 
-1.9042059524443227e-17 
-3.75932329346344e-18 
-2.7515857992273634e-18 
-3.619871641100535e-18 
3.2515967200410517e-18 
-1.0519627922137995e-18 
-3.583861065680235e-18 
3.917851809974959e-18 
2.1306928626758895e-18 
1.102436655598767e-18 
-3.9394315957544555e-19 
5.362010757803254e-19 
-1.7105033816687192e-19 
8.396991786710753e-20 
-6.488087499612853e-20 
-1.05537591489403e-18 
-4.2966027645911517e-19 
-2.9790534773214613e-18 
-1.9891410236416044e-18 
-6.462695705812915e-19 
1.8217021886560623e-18 
-2.360601912010771e-18 
-6.02922078354591e-18 
8.796055341690928e-18 
-5.6886603354608565e-18 
6.083868024472244e-19 
3.0704556435913013e-18 
-4.116119608857832e-18 
7.500072001132509e-18 
-4.646890442101721e-18 
3.4168898696033868e-18 
2.092485799715095e-18 
-2.349934296426433e-18 
7.085739771853606e-19 
4.424042102767081e-19 
-1.5318718878758227e-18 
2.927151752163684e-18 
-1.508801917080609e-17 
9.552047886163392e-20 
2.9198135513866197e-18 
-8.818468616105992e-18 
1.3181923161950585e-17 
-1.7165030644088318e-17 
1.94891824710975e-17 
-4.304480432908379e-19 
2.199432665035531e-18 
-1.8077336424785607e-17 
2.269131143947031e-18 
-1.9712561758864525e-17 
-2.1886082401335548e-17 
-2.00752173279888e-17 
-8.863468897198444e-18 
1.983577584025822e-18 
-1.3264137638606976e-18 
3.0800163749303896e-18 
2.679033885367531e-17 
8.72745870518077e-18 
3.123081615561464e-17 
2.973400464324674e-17 
2.8932597987554777e-17 
2.0690601276176497e-17 
-5.653659165627654e-17 
6.181409915508292e-17 
-6.619864303090717e-17 
2.877422594413499e-17 
-8.381086350388243e-18 
4.6147337985903454e-17 
-1.5379918015302317e-17 
3.629411653103104e-17 
-4.015253783212502e-17 
3.0866875804808767e-18 
1.8487693010493865e-17 
2.369545811149527e-18 
-2.9080326123053994e-17 
6.374674348893795e-17 
-9.758611840890581e-17 
8.833053485804423e-17 
-9.457064510568666e-17 
-7.75455673854046e-17 
1.0425365254138363e-16 
-1.9975214691819134e-16 
1.41723120801249e-16 
-2.1211842918821777e-17 
3.58367213437868e-17 
2.1638279756746242e-16 
2.9298429051050044e-17 
1.3385456231085042e-16 
-9.484201902879648e-17 
-1.5389985146005943e-16 
1.0760327632884492e-17 
-4.4731472547620656e-17 
-2.0489014384618956e-18 
1.6842552900473438e-6 
8.923165604009771e-5 
0.002461604755045846 
-1.370307130682356e-5 
1.3296849668728661e-5 
-6.297369920227379e-5 
0.00011358238778820493 
0.5809420206994942 
1.8265145888229442e-6 
0.0002028436404791914 
-2.7307114102746023e-7 
-2.992823408413625e-6 
5.856893537619527e-5 
0.000142879645354282 
0.0015540256092770063 
0.02721412391613238 
1.7153547990072488e-5 
-0.0001463686714911392 
0.006605582722431762 
1.6098631306969174e-6 
4.694751696498585e-5 
-0.0008303711336400286 
0.0014856047931030916 
1.7705377008775145e-5 
-0.0001941159866840515 
0.0005416297368508127 
0.20538157448837976 
-1.750493790104632e-6 
4.3396044464231175e-5 
3.684878454008551e-5 
0.017724687108364074 
-1.3532800884379031e-6 
3.812937739159408e-6 
-0.0011640977303187326 
-2.9099440434022323e-6 
-1.0536263507751445e-5 
-0.00037873961460366127 
-0.0010295682538962168 
7.0147247509877735e-6 
-1.0474899966549504e-5 
-3.4858738998506375e-5 
0.00019499228213460965 
0.0018656344746838117 
0.0907832740667144 
5.995197152619761e-6 
-0.0006400728164580834 
0.09583068884744664 
1.3352590834827523e-6 
8.673609847569501e-6 
9.728264368433417e-5 
-0.0006933946343039816 
-1.6104288944949178e-6 
9.4087965676742e-6 
-0.00077627134698567 
0.0019462700856469203 
8.593383654010444e-6 
1.2991379019893809e-5 
0.0005023496656610708 
-8.377658221503182e-7 
1.605478349202409e-5 
-7.211611816783103e-5 
-8.634390210588585e-5 
-0.00028862707434180735 
-3.425480979986647e-5 
-3.53014010127038e-6 
-3.3234247048077024e-5 
4.8325066693485426e-5 
0.004470228821965907 
-5.7123464738895335e-6 
-0.00017508633437939787 
3.660788816749695e-5 
0.004274335400818203 
0.0004967886624207871 
-0.0011587516121516503 
-4.4255389811864176e-8 
5.055390776333729e-6 
-2.2115004525782727e-5 
0.0008426619487118536 
-7.617410396373989e-7 
5.109232834734996e-6 
0.00014483502981185712 
8.999272071821256e-6 
-0.0004176482761506054 
0.38620884113391607 
1.4030578695351356e-5 
-0.00021408320489112656 
1.2066740407259372e-5 
-6.406244024391028e-7 
-2.4043138750898646e-5 
6.565422241462759e-5 
-6.457003081603289e-5 
-9.406870350873614e-6 
0.00012412732385158734 
-0.00018246474744550652 
-0.00013579155477037546 
0.09071997911388284 
7.741667170798892e-6 
-0.0005271396976673536 
-9.854677742482552e-6 
-0.00010361176521293849 
0.16302898358916645 
4.247497859160637e-6 
-0.00044397748078422387 
-4.086457376816389e-6 
-3.081789735743161e-5 
-0.000421854147222785 
0.00034031062356525556 
3.8098573671052284e-6 
-0.00026723951486713835 
0.008041443119354829 
-5.018035836403531e-7 
2.0620582521116202e-5 
-0.0005229405297680177 
-1.0475611923421951e-5 
0.00022627142738281265 
0.5434644475608268 
-1.3142653694194184e-6 
6.887578835875066e-5 
6.433867702713916e-5 
0.0020896148097560457 
0.0009886162000810512 
3.285983176830502e-6 
-0.00026946840121619414 
-0.00041858442997290564 
-5.84012250688737e-6 
-1.5676443588149855e-5 
0.00024999640735022565 
2.6077967103416275e-5 
-2.0054947229726698e-5 
0.0002606319538034994 
0.14303201052049133 
5.401117871424181e-6 
-7.64557245364931e-5 
-0.00045411438239636743 
-1.105000344110549e-6 
3.342259185655056e-5 
-2.9253962726424015e-5 
-0.0014469940547030152 
-1.144804909806939e-7 
5.0392210858682055e-6 
-0.00027130967665603677 
-0.000827340763901153 
0.007804490890891651 
-2.579724895793763e-6 
0.00012334739120420656 
5.843838245631466e-5 
0.0005670919897604788 
-7.207392489869286e-5 
-7.349679472332768e-6 
7.324681502548249e-6 
-0.0003017985583937414 
-1.0929300037760256e-6 
4.945402880016445e-6 
-0.00022749239782705904 
-0.0008011447147139449 
-2.819457074406822e-6 
-1.5776491638705413e-5 
-2.295524230447282e-5 
2.665481004111644e-6 
9.735286320574904e-6 
-2.0369167810676183e-5 
-0.00019533173869600048 
-0.0007026928033505593 
-5.895688362785439e-8 
1.9615005408216854e-5 
0.00040570220624589956 
0.0004271442042973581 
-5.195324746780296e-7 
8.529708929105198e-6 
0.0001321380792120196 
0.0017270731869248033 
-4.28467203158609e-5 
-4.882103295066596e-6 
-0.00033324663601491493 
0.07294374776202626 
1.3375729164174507e-5 
-4.6984775412051276e-5 
-0.0012553001937867158 
0.1395147746663663 
9.025197639287527e-7 
-9.619376260100206e-5 
-0.0006123387711333004 
0.46996519175768053 
5.5538636710911555e-6 
6.080634909755303e-5 
-4.26217683111963e-6 
1.02261451630604e-6 
0.0001790832247918923 
8.645468588706171e-5 
-0.0002528404746236032 
-1.8089501949171445e-6 
1.086080452415592e-5 
0.0016521159866746465 
0.03173705866698064 
8.18348881403528e-7 
0.00010909737825487895 
0.00038611443913492315 
0.06286953997328 
-1.4626099699403381e-5 
2.1800146996066623e-5 
-9.57565560104377e-5 
0.016308739030381953 
2.9786023289108265e-6 
-4.076892311782733e-6 
0.0003341746843562225 
-2.113810880667177e-5 
-2.0341132789222323e-5 
-3.709442279830033e-5 
-4.014777407254128e-5 
0.00018654712632684416 
2.533257296960061e-7 
4.105057448443462e-7 
0.0003339440665008511 
3.998867699362024e-7 
8.224579012572227e-6 
-0.00013006473276631577 
-1.9770845311551075e-5 
9.27970999370719e-5 
0.015210557675950727 
-1.3372688293273762e-5 
1.648239205189372e-6 
6.948757660304978e-5 
-5.941391500904085e-5 
7.515949873219769e-7 
7.665075902832554e-6 
-0.00041102716665078145 
4.57037752395003e-5 
-7.084155764068614e-6 
7.689432767533175e-5 
-0.000225238113150313 
0.04792858549981572 
1.5820177455130254e-6 
3.401215408090061e-5 
-0.0005489217300903047 
0.00012156946709945071 
1.4848622943626635e-6 
4.255902239242926e-5 
0.0018609055582060406 
0.0006335340772593921 
-5.673979500646804e-7 
0.0004759787405440821 
0.0007803256195721203 
0.018723848314344812 
1.917715131354462e-6 
-5.0213600635584104e-5 
0.0013152970685704989 
-1.2231974223966765e-6 
-2.4560298427219272e-5 
1.4923285672089925e-6 
-0.000784016035867939 
-0.0002899891511890912 
1.9573559827815864e-6 
-0.0002896974235890389 
-5.539434748818825e-7 
-9.848053258905527e-6 
6.570729762293491e-5 
0.00013708565676469634 
0.0001620173628441238 
0.013520391506409058 
9.042362242935956e-7 
9.792472252523061e-5 
8.294082882212494e-8 
3.88809327512303e-5 
9.278410250964984e-6 
-3.472935613052071e-6 
-4.384068330512176e-5 
-0.00029974474637391553 
-0.0008008276766687095 
5.782083759412339e-7 
1.9876606274486446e-5 
6.874164592204333e-5 
0.00013402584359329382 
0.2966770146187617 
3.6088070074147367e-6 
8.267454173645362e-6 
-7.426943654852872e-5 
-0.00038647345956999726 
-2.4263764944397006e-6 
1.1012172058959152e-5 
-0.0002624606658010471 
0.022668991866273927 
0.0010957856843369165 
-3.473920273308513e-6 
1.0556870854642727e-6 
0.00025770979180822295 
0.030038239687981163 
-2.314739694646321e-5 
-0.00016280464466594366 
9.428720088343224e-5 
-1.8251833234261538e-7 
-7.4024718428655855e-6 
0.0005860429018509078 
-6.073581459913566e-6 
-2.9739557485754054e-5 
-9.507201918348317e-5 
-0.0003503629786350254 
2.5658321043073307e-6 
-4.005736780367869e-6 
-3.074192541323859e-5 
0.006786235160125947 
-2.4272287325439373e-6 
-0.00014715399264142586 
0.0002016071642138127 
0.17993969999124232 
9.792023403432244e-7 
1.675477225167015e-5 
0.002334921473242899 
-0.00038510650797624155 
0.0007005214577866599 
0.4507242570608658 
-3.6055956014804154e-6 
4.5500066429144156e-5 
-6.554945952244082e-5 
-0.0003659376395986308 
0.6987058311737788 
3.1885842349226404e-6 
0.00016321634623755302 
1.713917443804342e-5 
-1.1121865771626332e-5 
-4.854838635616658e-6 
-0.0034257223705256904 
-4.596377363868498e-5 
0.0002998910596759238 
-0.00022350919584903655 
-3.5122623481715886e-6 
-0.000139966896884557 
0.00039194614013732303 
-0.0003633475908565924 
-5.058503211622374e-7 
1.7698358386769767e-5 
-0.0001290029690805192 
7.399536565244571e-5 
-5.337105442994325e-5 
0.11292844413651451 
4.210600643819876e-6 
7.106305753500808e-5 
0.00030291797724109354 
-8.245834799955759e-7 
4.1286455642178e-5 
-0.00018011735645571638 
0.05596814107295731 
-2.8551531024885764e-6 
5.871153628756846e-5 
0.00010049579675981853 
7.36094317351255e-5 
0.013329296393930172 
5.115334007514724e-8 
-0.00010549128944705603 
1.0504910970575282e-5 
0.004823400653560006 
0.00029557033306792534 
-0.00046815417355843415 
-1.2111739773263399e-6 
-1.050218788862267e-6 
-2.619762429999265e-5 
-0.0005092076851886374 
0.0034952186314733966 
-2.7339598720006955e-7 
2.3950554074257594e-5 
6.84048965104424e-5 
0.00034582715334759026 
2.592351041779349e-6 
7.646021687180403e-6 
2.0465566371816208e-5 
4.431605718933729e-5 
1.246923283033143e-5 
-1.863314634028288e-6 
-0.00020655425642198468 
-6.249137717291678e-7 
-8.784381256080869e-6 
3.6011389181989917e-5 
-8.85937203777353e-5 
-7.668479362447407e-8 
-5.763809900338032e-6 
-2.778327628854222e-5 
6.005133950848584e-5 
-0.0004159087818866832 
0.4768470043893142 
5.487546434516412e-6 
2.1753500840659344e-5 
0.13908025985301156 
7.569130141845569e-6 
1.4659392944720462e-6 
3.2891719919116594e-6 
-0.00011663989542473679 
-0.00016368563913260237 
0.2636420205981229 
-3.217209824747053e-7 
9.533535885302101e-5 
0.0001632439996722619 
0.0022005525695908182 
-4.063212858347078e-6 
-0.0004338378027659296 
4.0373092508651504e-5 
-0.002388543004112619 
6.535376150878421e-5 
4.258123552347722e-6 
-0.00011441416011197337 
6.359273470287554e-7 
2.7256815986126254e-5 
0.00019594235488853504 
2.5446305103390437e-7 
-0.00037136998316459545 
0.0012027568849982326 
0.04516861074969655 
3.0025255247018618e-5 
-0.0004401599106283911 
-0.0005283104982306895 
4.142009630442447e-6 
-4.12303728363586e-5 
0.01645012305305473 
-1.3931952649692279e-6 
3.943624820970277e-6 
-0.0002493931106962955 
0.0031657181672787448 
2.4094951411041154e-5 
-0.0021112352183693737 
-2.144335322359813e-6 
-5.870110423650726e-6 
-7.262474923770643e-6 
1.2445724599868851e-5 
-0.00024556375320280966 
0.03271632968655958 
-1.0806666534215005e-6 
-2.0888888804519337e-5 
-0.000825290778717932 
-1.2400759452229169e-5 
7.91993486455211e-6 
0.0002890560705968842 
0.25482564299648286 
-8.243461651254372e-7 
6.67852550326145e-5 
0.00030889345631948965 
-1.8106672843383598e-6 
-7.516112082728661e-7 
5.323647587957111e-5 
4.385198264508917e-5 
-0.000448324683917229 
5.331855584979984e-6 
2.528942882297238e-5 
2.4468149129209724e-5 
0.0017742055031466925 
-1.1706081677251923e-6 
-8.263845344576369e-7 
5.223163048398305e-5 
0.0018278165121791332 
-7.000878764456724e-7 
-5.333992513312164e-7 
0.004408990510171912 
-1.4262085106835118e-5 
-0.0011568551407465876 
8.665203658751409e-6 
-2.961183724808707e-6 
-9.603562142877507e-5 
2.6258799732760834e-5 
-6.640317893983522e-5 
-5.332643633348996e-7 
-2.8052636725099143e-6 
-0.0002524430076233931 
0.000751007383188317 
0.011362846121614147 
-1.299078050492731e-5 
-1.7753573436205395e-5 
0.19035169616214692 
1.5574688851357893e-6 
-8.960366474061528e-6 
-0.0004968735394328914 
-0.000410592450673201 
-0.00013457383517341103 
4.4887973629459584e-6 
2.9327249801043222e-5 
-0.00030646088199218945 
-0.00015327297083681315 
-0.0005020989885619986 
-8.614677755611489e-7 
5.849343750500385e-6 
0.005743171512140733 
0.0010724979891518706 
-2.6507721108693785e-6 
3.160394991053385e-5 
0.0004593145652510401 
0.0020684741540561826 
5.223216841395226e-6 
3.631373836161794e-5 
0.0004532387196048357 
-0.0008216320836971003 
0.000255880310453879 
0.002753095384908908 
0.02177243493139033 
0.011975477330032435 
4.405992893941026e-6 
-1.1885870215828535e-5 
-1.4179436513065105e-5 
1.898855653504605e-5 
-2.479795131287779e-6 
-4.258367934559826e-5 
-2.3671732980656274e-5 
0.00010533197992024166 
-0.00019724999129768262 
0.5216028004632015 
0.31976058877820357 
0.3727917725083755 
1.5774018839244415e-6 
-1.4472923018387744e-6 
-7.700285995483617e-9 
-3.328004109108863e-5 
2.9224184744569723e-5 
-2.0351406293492264e-5 
-0.00010110948109507372 
2.518237512098111e-5 
-3.1516037246330106e-6 
3.428045307783735e-5 
0.0034618858030424668 
0.010648705040007556 
0.0003694060943123602 
-1.603561418552789e-5 
1.648464495112308e-5 
-5.5677898771798456e-5 
0.00011638193472896488 
2.6705564205591138e-5 
0.3894514337590638 
0.25213116461671525 
2.113044571466589e-7 
-2.0143304688640506e-7 
0.00027538934908418714 
3.5930635123033256e-6 
1.5143595136368987e-5 
-5.4406532058233965e-5 
-0.00023883549277790988 
2.886479979370798e-5 
0.0004302663299500595 
-0.00021570475123234184 
-5.206582961087419e-5 
-2.951480875608465e-5 
0.0002238489666826502 
0.0008157467333373554 
-0.00018469161747866313 
0.00031508972706352023 
4.150726519568076e-7 
-4.5720468581457786e-6 
1.9504849863311964e-6 
1.4256514727485876e-5 
-6.566035085962557e-6 
7.275393058833453e-6 
-8.237076815974019e-5 
9.681907967209379e-5 
-9.897420033237531e-5 
5.695547232793417e-5 
-2.3146823676168074e-6 
3.634024973473222e-7 
-1.1940230127902254e-6 
1.474141669735747e-5 
0.0001818912883832329 
-1.2390617016294157e-5 
5.4995440149045017e-5 
-0.00015214997484626862 
9.896288344558808e-7 
-1.8809754209536111e-6 
2.7033611537430362e-5 
4.144709008266124e-6 
3.8769987905475674e-5 
9.111734941193013e-6 
-2.2286962433301887e-5 
0.00044616825115562124 
-0.0006175215701881717 
-0.0003267155339569943 
0.5708954174394215 
0.3161136699699065 
0.33717361105237664 
-6.35399301937244e-7 
-6.364445436231808e-7 
-3.1402147161265578e-6 
0.0008048845711343336 
-0.0004598890344391139 
0.0002743211350210096 
-2.8782926513018573e-6 
3.0852391468626358e-6 
-1.5241838157123583e-6 
-2.227109893058309e-5 
1.8445104909119993e-5 
1.213701185710927e-5 
6.389366000276165e-7 
5.804502275836431e-5 
0.0001012664067975022 
-0.000501130416281255 
0.00043120314664959786 
7.244484535234674e-5 
1.7394584305793487e-6 
-2.4281437740834394e-6 
4.1047324454427405e-7 
-3.313989426887231e-7 
-9.087402563711217e-6 
-2.2661444497133313e-6 
-9.093768121160053e-5 
0.00013473858011096607 
-4.852034340891988e-6 
0.00010565587930180553 
-0.00013223094470209487 
3.543194796453847e-6 
2.5932405436409802e-5 
0.00016919097965267305 
-1.141196016063811e-6 
-8.436212053570131e-6 
-8.940973461824134e-6 
0.00025144416384080694 
-0.00018478584363822818 
3.2797776858218076e-6 
2.309197402322325e-6 
1.2132420048836233e-6 
6.313118933430377e-6 
0.0001314312528141783 
-3.9310589133907594e-5 
-0.0003671677153573504 
0.0005037776509138251 
0.0003649171784222224 
-3.188504677889881e-6 
-4.848459847485527e-5 
5.632425037706636e-5 
-0.000579081757876375 
8.879785088120805e-7 
5.982038246020454e-8 
3.6559060326238706e-6 
1.0914168811241689e-5 
1.3667559489677439e-6 
1.173959585940162e-6 
-0.0001781985195576332 
7.204954808096368e-5 
-1.8478803038734476e-6 
1.4105535672399614e-6 
-9.66306077227053e-6 
1.4024691491958467e-5 
-5.540689002779184e-5 
-1.5874593635002339e-7 
2.3381861484090047e-5 
0.000684983217230701 
0.27376053682889157 
0.14423885705765807 
-1.5195625110148314e-6 
-2.970916900147643e-6 
-4.293880868606327e-5 
1.76604515411941e-5 
5.1025651175794635e-5 
-0.0016177774935394586 
0.0007394049590562027 
0.0022659595106439114 
1.3862684617120424e-6 
1.565302063384239e-6 
5.3701953191256e-7 
1.4619572472434656e-5 
-1.0199356724175035e-5 
-7.046513669856761e-6 
-1.9065535238019693e-6 
5.0055130738787175e-5 
-0.00047081157305918427 
0.00029822892166382023 
-0.0007563715547204112 
0.0001245962666689866 
-4.234031644616649e-6 
1.5388720124475198e-6 
-3.844345250487184e-5 
-3.142730849236942e-6 
0.0010407256625214252 
-0.00014034444931317646 
-0.0012768550780912606 
9.45740592897774e-5 
0.00027838618707727483 
-1.736500526852697e-5 
1.6521139002391835e-6 
3.439245718755811e-6 
7.363083707961824e-6 
-5.320956256547377e-5 
8.765112423016572e-5 
-0.0001425240104505056 
0.00022831059802453317 
-8.622921647553962e-5 
-0.00028183746960345975 
1.6020501577303628e-7 
1.434849731939974e-6 
6.649854579006731e-7 
-5.7948994124363035e-6 
1.1444671189576499e-5 
1.748537080081246e-5 
9.217393792084956e-5 
0.00016971386524733582 
-0.00016301016715436622 
-4.845349395095918e-6 
1.3010382639798543e-5 
-0.0005187225877912832 
0.0009232706302431346 
7.911591116287878e-7 
-1.710474391762045e-7 
9.510591422037156e-6 
1.2541060679895758e-6 
0.000312297395507516 
7.05133978429927e-5 
0.00016313468100799593 
-0.0002031009274485222 
0.0002015850216599257 
4.952104525498785e-5 
-1.0483878180949067e-6 
2.4736051881210835e-6 
2.7921639734542237e-6 