# vtk DataFile Version 3.0 
Unstructured Grid 
ASCII 
DATASET UNSTRUCTURED_GRID
POINTS 2173 float 
-0.5 -0.5 0  
0.5 -0.5 0  
0.5 0.5 0  
-0.5 0.5 0  
-0.475 -0.5 0  
-0.45 -0.5 0  
-0.425 -0.5 0  
-0.4 -0.5 0  
-0.375 -0.5 0  
-0.35 -0.5 0  
-0.325 -0.5 0  
-0.3 -0.5 0  
-0.275 -0.5 0  
-0.25 -0.5 0  
-0.225 -0.5 0  
-0.2 -0.5 0  
-0.175 -0.5 0  
-0.15 -0.5 0  
-0.125 -0.5 0  
-0.1 -0.5 0  
-0.075 -0.5 0  
-0.05 -0.5 0  
-0.025 -0.5 0  
-1.3761214e-12 -0.5 0  
0.025 -0.5 0  
0.05 -0.5 0  
0.075 -0.5 0  
0.1 -0.5 0  
0.125 -0.5 0  
0.15 -0.5 0  
0.175 -0.5 0  
0.2 -0.5 0  
0.225 -0.5 0  
0.25 -0.5 0  
0.275 -0.5 0  
0.3 -0.5 0  
0.325 -0.5 0  
0.35 -0.5 0  
0.375 -0.5 0  
0.4 -0.5 0  
0.425 -0.5 0  
0.45 -0.5 0  
0.475 -0.5 0  
0.5 -0.475 0  
0.5 -0.45 0  
0.5 -0.425 0  
0.5 -0.4 0  
0.5 -0.375 0  
0.5 -0.35 0  
0.5 -0.325 0  
0.5 -0.3 0  
0.5 -0.275 0  
0.5 -0.25 0  
0.5 -0.225 0  
0.5 -0.2 0  
0.5 -0.175 0  
0.5 -0.15 0  
0.5 -0.125 0  
0.5 -0.1 0  
0.5 -0.075 0  
0.5 -0.05 0  
0.5 -0.025 0  
0.5 -1.3761214e-12 0  
0.5 0.025 0  
0.5 0.05 0  
0.5 0.075 0  
0.5 0.1 0  
0.5 0.125 0  
0.5 0.15 0  
0.5 0.175 0  
0.5 0.2 0  
0.5 0.225 0  
0.5 0.25 0  
0.5 0.275 0  
0.5 0.3 0  
0.5 0.325 0  
0.5 0.35 0  
0.5 0.375 0  
0.5 0.4 0  
0.5 0.425 0  
0.5 0.45 0  
0.5 0.475 0  
0.475 0.5 0  
0.45 0.5 0  
0.425 0.5 0  
0.4 0.5 0  
0.375 0.5 0  
0.35 0.5 0  
0.325 0.5 0  
0.3 0.5 0  
0.275 0.5 0  
0.25 0.5 0  
0.225 0.5 0  
0.2 0.5 0  
0.175 0.5 0  
0.15 0.5 0  
0.125 0.5 0  
0.1 0.5 0  
0.075 0.5 0  
0.05 0.5 0  
0.025 0.5 0  
1.3761214e-12 0.5 0  
-0.025 0.5 0  
-0.05 0.5 0  
-0.075 0.5 0  
-0.1 0.5 0  
-0.125 0.5 0  
-0.15 0.5 0  
-0.175 0.5 0  
-0.2 0.5 0  
-0.225 0.5 0  
-0.25 0.5 0  
-0.275 0.5 0  
-0.3 0.5 0  
-0.325 0.5 0  
-0.35 0.5 0  
-0.375 0.5 0  
-0.4 0.5 0  
-0.425 0.5 0  
-0.45 0.5 0  
-0.475 0.5 0  
-0.5 0.475 0  
-0.5 0.45 0  
-0.5 0.425 0  
-0.5 0.4 0  
-0.5 0.375 0  
-0.5 0.35 0  
-0.5 0.325 0  
-0.5 0.3 0  
-0.5 0.275 0  
-0.5 0.25 0  
-0.5 0.225 0  
-0.5 0.2 0  
-0.5 0.175 0  
-0.5 0.15 0  
-0.5 0.125 0  
-0.5 0.1 0  
-0.5 0.075 0  
-0.5 0.05 0  
-0.5 0.025 0  
-0.5 1.3761214e-12 0  
-0.5 -0.025 0  
-0.5 -0.05 0  
-0.5 -0.075 0  
-0.5 -0.1 0  
-0.5 -0.125 0  
-0.5 -0.15 0  
-0.5 -0.175 0  
-0.5 -0.2 0  
-0.5 -0.225 0  
-0.5 -0.25 0  
-0.5 -0.275 0  
-0.5 -0.3 0  
-0.5 -0.325 0  
-0.5 -0.35 0  
-0.5 -0.375 0  
-0.5 -0.4 0  
-0.5 -0.425 0  
-0.5 -0.45 0  
-0.5 -0.475 0  
-0.002115384 -0.00023065208 0  
-0.20714286 -0.20714286 0  
0.20714286 -0.20714286 0  
0.20714286 0.20714286 0  
-0.20714286 0.20714286 0  
-0.28155318 -0.0017231192 0  
0.0017231192 -0.28155318 0  
0.28155318 0.0017231192 0  
-0.0017231192 0.28155318 0  
0.3319978 -0.33098683 0  
0.33098683 0.3319978 0  
-0.3319978 0.33098683 0  
-0.33098683 -0.3319978 0  
-0.14015679 -0.06698606 0  
0.06698606 -0.14015679 0  
0.14015679 0.06698606 0  
-0.06698606 0.14015679 0  
-0.1387125 -0.34573975 0  
0.34573975 -0.1387125 0  
0.1387125 0.34573975 0  
-0.34573975 0.1387125 0  
0.14046866 -0.34602854 0  
0.34602854 0.14046866 0  
-0.14046866 0.34602854 0  
-0.34602854 -0.14046866 0  
-0.05869875 -0.16617337 0  
0.18217777 -0.061504476 0  
0.062312964 0.18362015 0  
-0.18362015 0.062312964 0  
-0.034321424 -0.38563195 0  
0.38563195 -0.034321424 0  
0.034321424 0.38563195 0  
-0.38563195 0.034321424 0  
0.39586002 -0.2428538 0  
0.2428538 0.39586002 0  
-0.39586002 0.2428538 0  
-0.2428538 -0.39586002 0  
0.23688246 -0.38952246 0  
0.38952246 0.23688246 0  
-0.23688246 0.38952246 0  
-0.38952246 -0.23688246 0  
-0.24287231 -0.09948847 0  
0.09948847 -0.24287231 0  
0.24287231 0.09948847 0  
-0.09948847 0.24287231 0  
-0.11560815 -0.24300627 0  
0.24300627 -0.11560815 0  
0.11560815 0.24300627 0  
-0.24300627 0.11560815 0  
-0.40192315 -0.4008276 0  
0.4008276 -0.40192315 0  
0.40192315 0.4008276 0  
-0.4008276 0.40192315 0  
0.06409326 -0.40289903 0  
0.40289903 0.06409326 0  
-0.06409326 0.40289903 0  
-0.40289903 -0.06409326 0  
0.2962961 -0.23982804 0  
0.23982804 0.2962961 0  
-0.2962961 0.23982804 0  
-0.23982804 -0.2962961 0  
-0.28087237 -0.21196799 0  
0.21196799 -0.28087237 0  
0.28087237 0.21196799 0  
-0.21196799 0.28087237 0  
-0.0901279 0.007867504 0  
-0.05002927 -0.07494272 0  
0.0873353 -0.009871756 0  
0.0071518295 0.09216282 0  
-0.14120433 -0.1484696 0  
-0.14581114 0.13960092 0  
0.1458264 -0.14505939 0  
0.13960092 0.14581114 0  
0.41838804 -0.3182741 0  
0.3182741 0.41838804 0  
-0.41838804 0.3182741 0  
-0.3182741 -0.41838804 0  
0.32118136 -0.41712493 0  
0.41712493 0.32118136 0  
-0.32118136 0.41712493 0  
-0.41712493 -0.32118136 0  
-0.19707234 -0.014843048 0  
0.018050108 -0.20183705 0  
0.19707234 0.014843048 0  
-0.014843048 0.19707234 0  
-0.10938372 -0.41847488 0  
0.41847488 -0.10938372 0  
0.10938372 0.41847488 0  
-0.41847488 0.10938372 0  
0.15773043 -0.4267032 0  
0.4267032 0.15773043 0  
-0.15773043 0.4267032 0  
-0.4267032 -0.15773043 0  
-0.3204562 -0.07174808 0  
0.07174808 -0.3204562 0  
0.3204562 0.07174808 0  
-0.07174808 0.3204562 0  
0.02801032 -0.07269879 0  
-0.31817523 0.069836795 0  
-0.069836795 -0.31817523 0  
0.31817523 -0.069836795 0  
0.069836795 0.31817523 0  
0.43106207 -0.17757268 0  
0.17757268 0.43106207 0  
-0.43106207 0.17757268 0  
-0.17757268 -0.43106207 0  
0.0703783 0.071201205 0  
-0.051593844 0.064346604 0  
0.099701226 -0.08333426 0  
0.2863281 -0.17248559 0  
0.17248559 0.2863281 0  
-0.2863281 0.17248559 0  
-0.17248559 -0.2863281 0  
-0.2341888 0.04979648 0  
-0.049194112 -0.231281 0  
0.23358595 -0.04946041 0  
0.04979648 0.2341888 0  
-0.009939441 -0.13691185 0  
-0.26560438 -0.17864102 0  
0.17864102 -0.26560438 0  
0.26560438 0.17864102 0  
-0.17864102 0.26560438 0  
0.013302229 -0.43510666 0  
0.43510666 0.013302229 0  
-0.013302229 0.43510666 0  
-0.43510666 -0.013302229 0  
0.09432827 0.114700764 0  
-0.11539384 0.093188405 0  
-0.3413634 -0.005100272 0  
0.005100272 -0.3413634 0  
0.3413634 0.005100272 0  
-0.005100272 0.3413634 0  
-0.19817708 -0.3508856 0  
0.3508856 -0.19817708 0  
0.19817708 0.3508856 0  
-0.3508856 0.19817708 0  
-0.34100306 -0.27216324 0  
0.27216324 -0.34100306 0  
0.34100306 0.27216324 0  
-0.27216324 0.34100306 0  
-0.20269383 -0.14403741 0  
0.14393912 -0.2028372 0  
0.2026342 0.14393856 0  
-0.14393856 0.2026342 0  
-0.1030633 -0.10524017 0  
-0.4394695 -0.104853734 0  
0.104853734 -0.4394695 0  
0.4394695 0.104853734 0  
-0.104853734 0.4394695 0  
-0.44156647 -0.44156647 0  
0.44156647 -0.44156647 0  
0.44156647 0.44156647 0  
-0.44156647 0.44156647 0  
-0.2683254 -0.44465622 0  
0.44465622 -0.2683254 0  
0.2683254 0.44465622 0  
-0.44465622 0.2683254 0  
0.2654342 -0.4435478 0  
0.4435478 0.2654342 0  
-0.2654342 0.4435478 0  
-0.4435478 -0.2654342 0  
-0.27373606 -0.34534052 0  
0.34534052 -0.27373606 0  
0.27373606 0.34534052 0  
-0.34534052 0.27373606 0  
-0.05307205 -0.4481981 0  
0.4481981 -0.05307205 0  
0.05307205 0.4481981 0  
-0.4481981 0.05307205 0  
-0.35614902 -0.19390328 0  
0.19390328 -0.35614902 0  
0.35614902 0.19390328 0  
-0.19390328 0.35614902 0  
-0.14022674 -0.012452113 0  
0.14171903 0.011271359 0  
-0.01125192 0.14089845 0  
-0.19556868 -0.06932378 0  
0.070511825 -0.19668652 0  
0.19556868 0.06932378 0  
-0.06932378 0.19556868 0  
-0.24951252 -0.039742906 0  
0.04037078 -0.2503529 0  
0.24951252 0.039742906 0  
-0.039742906 0.24951252 0  
0.44100407 -0.36164257 0  
0.36164257 0.44100407 0  
-0.44100407 0.36164257 0  
-0.36164257 -0.44100407 0  
-0.4451273 -0.36589316 0  
0.36589316 -0.4451273 0  
0.4451273 0.36589316 0  
-0.36589316 0.4451273 0  
0.1121834 -0.30242515 0  
0.30242515 0.1121834 0  
-0.1121834 0.30242515 0  
-0.30242515 -0.1121834 0  
-0.115146436 -0.19087775 0  
0.19190264 -0.11309679 0  
0.11520548 0.19263776 0  
-0.19263776 0.11520548 0  
-0.08287991 -0.37025127 0  
0.37025127 -0.08287991 0  
0.08287991 0.37025127 0  
-0.37025127 0.08287991 0  
0.23791528 -0.24381089 0  
0.24381089 0.23791528 0  
-0.23791528 0.24381089 0  
-0.24381089 -0.23791528 0  
-0.44626984 -0.21174923 0  
0.21174923 -0.44626984 0  
0.44626984 0.21174923 0  
-0.21174923 0.44626984 0  
0.35174853 -0.37705234 0  
0.37705234 0.35174853 0  
-0.35174853 0.37705234 0  
-0.37705234 -0.35174853 0  
-0.048605647 -0.023262763 0  
-0.1551113 -0.21381997 0  
0.21381997 -0.1551113 0  
0.1551113 0.21381997 0  
-0.21381997 0.1551113 0  
-0.29403278 -0.30027482 0  
0.30027482 -0.29403278 0  
0.29403278 0.30027482 0  
-0.30027482 0.29403278 0  
0.12173745 -0.390654 0  
0.390654 0.12173745 0  
-0.12173745 0.390654 0  
-0.390654 -0.12173745 0  
-0.12236246 -0.2979882 0  
0.2979882 -0.12236246 0  
0.12236246 0.2979882 0  
-0.2979882 0.12236246 0  
-0.0945969 -0.046371013 0  
0.035276897 -0.027358124 0  
-0.0076714605 0.051946 0  
-0.30809116 -0.17165439 0  
0.17165439 -0.30809116 0  
0.30809116 0.17165439 0  
-0.17165439 0.30809116 0  
-0.16592422 -0.10879113 0  
0.10700909 -0.1687818 0  
0.16864619 0.10664837 0  
-0.10664837 0.16864619 0  
-0.16784625 -0.38069874 0  
0.38069874 -0.16784625 0  
0.16784625 0.38069874 0  
-0.38069874 0.16784625 0  
-0.4563872 -0.05993889 0  
0.05993889 -0.4563872 0  
0.4563872 0.05993889 0  
-0.05993889 0.4563872 0  
0.31103167 -0.37412483 0  
0.37412483 0.31103167 0  
-0.31103167 0.37412483 0  
-0.37412483 -0.31103167 0  
-0.3909646 -0.012754724 0  
0.012754724 -0.3909646 0  
0.3909646 0.012754724 0  
-0.012754724 0.3909646 0  
0.44915667 -0.21679194 0  
0.21679194 0.44915667 0  
-0.44915667 0.21679194 0  
-0.21679194 -0.44915667 0  
0.045831423 0.12033131 0  
-0.12662303 0.045442794 0  
-0.3107799 -0.37355793 0  
0.37355793 -0.3107799 0  
0.3107799 0.37355793 0  
-0.37355793 0.3107799 0  
0.04152367 0.021693805 0  
-0.08040017 -0.2675595 0  
0.26794365 -0.08044455 0  
0.080500565 0.2680441 0  
-0.2680441 0.080500565 0  
-0.13753757 -0.45578164 0  
0.45578164 -0.13753757 0  
0.13753757 0.45578164 0  
-0.45578164 0.13753757 0  
-0.05507968 -0.12135967 0  
0.14172421 -0.09428923 0  
0.2571752 -0.19664502 0  
[...]
POINT_DATA 2173 
SCALARS T float 
LOOKUP_TABLE default 
-3.017022121923385e-19 
-2.5744176545291988e-18 
-8.457807094369197e-18 
-1.993285098064414e-20 
-1.366832112414962e-18 
8.698849031475782e-18 
-1.4886978971695076e-18 
1.3153043809539974e-17 
7.976072562628226e-18 
4.991423909225022e-18 
4.472759654263698e-18 
-9.622179213852892e-18 
4.1341664811960846e-17 
-6.542412604684616e-17 
3.9688492358775296e-17 
-8.499881946668072e-18 
-1.3445343201276744e-17 
1.8197245665695844e-17 
-3.322302636576843e-17 
3.252064366984766e-17 
-6.076784467523094e-18 
1.2566483862516243e-17 
-1.1326721817743086e-17 
1.6989305024783396e-18 
7.965616208983843e-18 
-2.0163556642325416e-17 
3.886609293194913e-17 
-2.207246828020606e-17 
-1.5367455484262145e-17 
-1.445211964673773e-17 
-2.0234923412545364e-17 
-1.32845142753285e-17 
7.329672564576091e-18 
-9.062962296411226e-17 
-4.4687627743064673e-17 
3.518545959087877e-17 
-4.4029515517484217e-17 
-6.875954430863293e-17 
-6.569059548874461e-17 
-2.512344705347497e-17 
2.0654087575323543e-17 
7.768591704709922e-18 
3.958914497070633e-17 
-4.339501699813789e-17 
1.797171130882485e-17 
-3.304901998105129e-17 
1.0618340694303206e-16 
6.328511294740391e-17 
-5.9168187593276066e-18 
-1.1495079567879965e-16 
-7.777769878938997e-17 
1.8417636216995308e-16 
-1.988219465438429e-16 
3.2074550163086254e-16 
-1.0968793292063675e-16 
1.2258346854167246e-16 
-4.2614594954626917e-17 
-1.8310170523508742e-16 
9.919362292300728e-17 
-8.319854142598151e-17 
6.002684371773884e-17 
-5.1448874200471503e-17 
1.0420325085645807e-17 
9.267778809882679e-17 
-2.262067003330816e-16 
2.439279627294018e-16 
1.0980298131112196e-16 
1.3786759253849027e-16 
2.926455140293477e-16 
-3.457327024465627e-16 
6.204573591942168e-16 
-8.253225267054672e-16 
2.490629906210993e-16 
1.6699918136787098e-16 
4.565948086582448e-16 
-3.891638174580925e-17 
7.009015627036586e-16 
1.1526061706677629e-16 
-1.0632209465842393e-16 
3.213577407238999e-16 
-2.1841301987104864e-17 
-4.141460115744673e-17 
1.5031773214080724e-17 
2.5919985491413743e-17 
-5.747119245159541e-16 
2.5839882084942633e-16 
2.2936978697697975e-16 
1.4465510789171178e-16 
7.007661655628208e-17 
-1.0917723200122792e-15 
8.328953398428223e-17 
-5.059747654968502e-16 
2.698304526145707e-16 
4.345911957763507e-16 
1.3996523969480022e-16 
-1.392387023484959e-17 
3.5172768640530602e-16 
-1.0242023684041704e-15 
9.207752790395062e-16 
-6.953164098271598e-16 
-9.548588768211505e-17 
1.771317786971875e-16 
-8.909309823339124e-17 
-7.314122442093709e-17 
4.381002590230562e-16 
-5.660440456076185e-16 
-4.7071029741356883e-17 
-1.0050598319268747e-16 
-3.047456919858792e-17 
-5.793635309934465e-17 
-1.9846114130103418e-17 
-3.006285389574791e-18 
3.711065355274528e-18 
1.0070303446722435e-17 
5.483825080484073e-18 
-1.5205440219069807e-18 
-2.783750431537728e-18 
-9.203953409525787e-19 
-1.2719064339888758e-18 
-6.288039415817236e-19 
6.126785784085515e-19 
-6.20438743470064e-19 
8.689002190618619e-19 
1.5458588700929905e-18 
1.4394195906708625e-18 
1.2266346019601364e-18 
-4.526455441787954e-19 
-4.852023337275908e-19 
-1.2318255893109033e-18 
4.508469624914684e-20 
-1.130800986994428e-18 
1.479475191026847e-19 
-1.159106598653806e-19 
-1.3160510037123139e-18 
9.095335546045446e-19 
-3.333249369928877e-18 
2.259592287663419e-18 
-2.26543572474574e-18 
-3.036799786904954e-20 
3.585249697816702e-19 
-4.471878950759157e-19 
-2.959899511214635e-20 
5.402550608469342e-19 
-7.513209466893641e-19 
5.510576552863913e-18 
-5.921660759928962e-18 
7.979968292528976e-19 
-4.461368202426733e-19 
-3.990842393666434e-18 
6.366205401514271e-18 
-4.759081936845405e-18 
4.3888911795173325e-18 
5.8927415684615225e-18 
-3.579314149350967e-18 
-1.4190153382892188e-17 
-1.0147797753760948e-17 
-3.266134865822653e-18 
-1.1482287665141679e-18 
-4.436823453857578e-18 
7.714870302286548e-19 
7.108019111819657e-6 
-2.7172755754639456e-5 
1.3041064881860636e-5 
0.00028752953008445535 
0.08576893585858414 
-2.650571025729491e-6 
2.2764822876994933e-6 
-0.00013285962668101284 
0.1209657283380065 
-7.897871630585636e-5 
-0.0003672154082745549 
-1.0694093808125907e-5 
-5.755522993933374e-6 
-2.101768759151608e-6 
-8.797252966732782e-6 
-0.00022883304933356708 
0.14550077058008165 
-3.908751824014035e-5 
-2.842260911360398e-5 
-0.0001355590199568678 
-2.44649660930074e-5 
-2.0728489221754188e-5 
-0.00022264717539921604 
0.05042473558667526 
-5.818089158957344e-6 
2.0789300024227857e-5 
-0.00013688880168959456 
0.006056520010318384 
0.001601593143638713 
4.655293646701361e-5 
6.493558961616384e-6 
0.001545382867653598 
-2.0274611796539704e-6 
0.00014272877488184676 
7.940862654444775e-5 
1.8239114772334976e-6 
1.3283052668356262e-5 
1.4811339042736566e-5 
0.0004489939319896923 
0.00011530253039040664 
1.911920572926259e-6 
-8.836594233009521e-7 
-2.613099407081342e-5 
0.00012067953795933492 
0.6043463910563375 
1.3855007869049759e-5 
-3.7975579412952304e-5 
0.0027057727290743733 
0.0028397055793651705 
-5.871738563710282e-6 
-6.211058448224262e-5 
0.0003241070299975631 
-4.166771660762062e-6 
-3.633921632167601e-5 
0.00038533643283263097 
0.005384754123268 
-3.1574907123200256e-6 
5.470620699260443e-6 
0.0007662400682006983 
0.0006039300998792889 
-1.4076537447794762e-5 
-5.173100714456647e-7 
-7.278399804701725e-5 
0.0003411190993994402 
0.049901074457407865 
5.941044219812282e-5 
5.379061420806465e-6 
0.00010873087562568793 
0.005658313322842128 
-8.602819648708311e-6 
0.11733002352196951 
-1.1421338809695887e-5 
-0.0012711352488589418 
-4.578485282006194e-5 
0.0006693594728821276 
2.2436035332261582e-6 
-6.764655331200764e-6 
1.2698386554940458e-5 
0.00021942167211667533 
1.7156685476853122e-5 
3.7373394604811484e-6 
-5.460469915762641e-6 
-5.424224549021894e-6 
-5.352622221787301e-5 
0.20146161164943066 
1.4919938228761928e-5 
2.9024706625864486e-5 
0.0013244981721916595 
8.677030270412918e-7 
-4.233811584909196e-5 
0.00012873211919878252 
0.0003853391359800397 
1.6809071367754946e-6 
-7.452901961614739e-6 
1.6024840793622115e-6 
0.00014199549116762563 
0.16281178941286142 
-8.776191528375424e-5 
-1.486810253023896e-5 
1.450907455586976e-5 
0.00010198021527031332 
0.003265725795461567 
0.00011649599813150602 
-8.25120051841416e-5 
1.1505983977877631e-6 
1.0839534441419904e-5 
0.0006137242996422872 
0.004974403693106657 
-2.9680533844022973e-5 
2.1785826008635015e-5 
-0.0004965313866193948 
0.0012625223823766122 
-9.172352555586592e-6 
3.617684709907203e-5 
-2.8594215139992178e-6 
-0.0001033599464193323 
0.022233604332375277 
2.0030702620644413e-6 
-8.551539271131246e-6 
-7.375799107120807e-5 
0.0008994279775187401 
0.1758989563169419 
7.725027333462514e-6 
0.0001370139635120343 
0.001271652214222225 
1.9034855663621907e-6 
0.0007924965737593497 
0.02743606331117652 
-5.658275658641664e-7 
3.304668221352646e-6 
-0.00012490898890720777 
0.02535398674355595 
-3.380835308421264e-5 
-6.609755170765532e-5 
0.0006493557210393758 
-2.89140434940495e-5 
-2.510212026612439e-6 
1.4422372659616167e-5 
0.001122321120071467 
0.00023868843446050788 
-4.224344095598411e-6 
-8.218346523859562e-6 
-5.6847890980097535e-5 
0.3779539901472726 
2.815349973061377e-6 
2.4883937778641853e-6 
-1.6057267873837494e-5 
-0.00010291549645695833 
0.00034879333912214775 
1.7370188652188411e-6 
3.947649776167192e-6 
0.00016789673465681195 
-2.0666255504502393e-7 
6.701549802110188e-6 
8.291455396584138e-5 
0.0005579445110411153 
1.096690684627519e-6 
-2.0818707001261764e-5 
0.0004129701070801751 
3.496527397804044e-5 
2.156229184039815e-6 
-5.8280998069704555e-6 
2.4092704994266902e-5 
0.0007146850231488762 
-4.484771806660844e-5 
-2.151768736386082e-5 
0.00010081148424825463 
-0.00022253184438039396 
2.187654692842075e-6 
1.46310724509367e-6 
-5.256411230513851e-5 
0.0002071507647186231 
0.00882855927229778 
-1.6282904865731285e-5 
-0.0003438307163335803 
0.05641238175996754 
1.547248196998583e-6 
1.3591711847168495e-5 
-6.473396067145294e-6 
0.4592936935580017 
-2.6931953663657355e-6 
1.8478858988525073e-5 
8.195917292607573e-5 
0.38946236223007613 
-2.788489017377089e-5 
0.0003365146514183752 
-1.403126881983391e-6 
1.279543142178336e-5 
4.020003123734288e-6 
-1.3101172775684487e-5 
0.0004043614283447203 
-1.8550535872916067e-6 
-1.545865805123789e-5 
-0.00013389263086869248 
0.2610659129064248 
-3.0342201986854236e-6 
-1.0977499184168656e-5 
-7.467980898532683e-5 
-0.0022479721376247354 
0.019314058750445548 
2.6167113289476777e-6 
1.8394331534732404e-5 
0.0011688090895685692 
-5.298463266775474e-7 
7.416050712842643e-5 
-0.0006704789243736264 
0.027477627231091553 
1.0453040985030038e-6 
5.230398581763273e-6 
-9.917090797412217e-6 
-0.00016990766281680102 
0.00011055780574872293 
6.222211431822554e-5 
-0.0003355219770343201 
1.1290460461592377e-5 
1.0342745709323356e-6 
-4.283303466242633e-7 
5.496471267683619e-6 
1.571990704128908e-6 
-0.001357120194020505 
0.03394357155446049 
-1.1554731332388536e-6 
-6.873274405193879e-5 
-0.0004551245009343097 
0.00010883552411217735 
3.589969053365075e-5 
0.00020656422479147033 
0.008743415498717814 
-1.3419300867477076e-6 
-3.248258651109866e-5 
-7.72626104443081e-6 
0.00016053333018128596 
6.095553673287482e-6 
-1.9467875126479647e-6 
-7.050749193506325e-5 
0.0006694011403199507 
-1.2394186092856523e-6 
-9.719882588086035e-5 
0.00012022600256432788 
0.09224965153880708 
5.797103819899378e-6 
-3.619448425242955e-5 
0.0005728630028071622 
0.32826798755264136 
7.907930329616366e-6 
0.00010502820853740559 
-8.416339556901324e-5 
-3.748601315384172e-6 
-7.00367558190703e-7 
1.181843903812014e-6 
-6.827135641053396e-5 
0.0002873136693045228 
-1.0282192493300822e-5 
0.0005552985063751179 
-3.0183574765796598e-5 
7.410817421526744e-6 
9.697977649633354e-7 
-2.7695817644239697e-5 
-2.5735111009324644e-5 
0.0016506739619452568 
-8.184490747081556e-5 
9.951150522802565e-5 
1.0663540600095199e-6 
-1.9238807567911473e-5 
0.004812481914155127 
0.0016300881806927605 
-2.5304636602893812e-6 
7.331310757696946e-5 
7.79033472824575e-6 
-3.453372901948741e-6 
-6.654003795747646e-5 
-1.4466129064496708e-5 
-4.1586614410748324e-5 
0.007926296325054467 
5.053721201692794e-5 
5.390214966015211e-6 
-1.167064782822135e-6 
0.0008977252447063904 
1.441286743572059e-6 
3.767847023878993e-7 
6.986171074217993e-5 
2.395451413731881e-5 
0.0005684656804106444 
0.0099086856596488 
-1.2771767087516488e-5 
-5.236587928112424e-5 
-1.8752883969602968e-6 
6.609299359754943e-6 
5.873871078471882e-5 
0.00013126178020488765 
5.125770694316499e-6 
9.366362614329723e-5 
-1.9466074376096112e-5 
-1.2979168476734022e-7 
1.738338285900565e-5 
-1.5103974317532427e-5 
6.905829426166668e-5 
-4.538437673271979e-6 
-3.7071221756714825e-6 
0.0005929096113947672 
0.021022485160374284 
-5.877155985202603e-6 
-2.628559483489331e-5 
-0.00010165689436824727 
0.39221834557810836 
0.00019225086122130283 
-0.00011085224482688667 
4.7735177371106195e-6 
3.141929870917894e-5 
-0.00014019782156084694 
0.060982385344632406 
2.4203264757737514e-6 
-1.0901016317501915e-5 
2.040174704425174e-5 
-7.607193740562456e-6 
0.138921206026465 
6.625100813920086e-6 
-3.991472464754713e-5 
-0.0004187461026890378 
0.0001386055036009978 
0.00015506386604845183 
-2.2590324961461388e-5 
-1.9594928875519083e-5 
3.3751583546490097e-5 
0.006063482138555047 
1.3912482633295756e-6 
7.0499023433894435e-6 
1.888199046497982e-5 
0.0004270220027919255 
-1.2323168043606433e-6 
-6.10446038959419e-6 
-8.455600723171318e-7 
-2.544285305547289e-5 
1.5720240028398353e-5 
0.005019529425310671 
6.768694331598477e-6 
-2.4011893913235162e-5 
-0.00047653668655918424 
2.4314029515669767e-6 
3.41313317167808e-5 
0.00017659762014334823 
0.044959915669270344 
7.316908428578299e-7 
-1.5450113249802882e-6 
-2.1368219956609004e-5 
0.0005061280331771659 
0.06345152499974754 
5.764811494659366e-6 
0.14325347097716915 
2.8427389005502792e-5 
0.001050398131720006 
-1.2308919049912279e-5 
0.00037382930249311313 
-3.778421479689801e-5 
1.7612665350635652e-7 
-7.407677241971897e-6 
0.00016226486522405933 
-0.0009268816547915989 
6.168327401621088e-7 
-7.8323954575524e-6 
-3.1433991688540506e-5 
-0.00025909669397674364 
5.495716095238832e-7 
1.7306954140263792e-6 
-1.7746673589059566e-5 
-6.170706423497874e-5 
0.000693720848356854 
2.9629301008784003e-5 
0.0003056398827667015 
-6.094501047712851e-7 
2.263479341061804e-6 
2.09365820951919e-5 
6.005008933160711e-5 
-2.734300770994765e-7 
2.775942299463288e-7 
-1.1896029181495198e-5 
-3.991345029016317e-5 
5.300354937963571e-5 
0.02052963157374387 
-1.857729210350502e-6 
-0.0002482316024592495 
0.21588843890496515 
0.0005495691743302381 
0.01927850268635347 
-1.7849204515331736e-6 
4.105747867766591e-5 
0.00018161357578052318 
0.17623327746448716 
2.6956637783358485e-6 
-2.523842946477147e-6 
-9.714595994583519e-5 
0.00013768675992581296 
0.00010475293948847542 
-1.0713919447135275e-5 
-0.00019382294856792176 
0.001935617653941673 
0.10755980508453111 
-0.00021262626208384849 
0.00016292323804810235 
5.584924977914439e-8 
-1.3638380201830824e-5 
0.0005902352087752237 
-8.76496841022017e-6 
4.663052893185858e-5 
-0.00023314466604892355 
0.5190055018027113 
1.3743871030544806e-5 
0.00022049895066166513 
0.0004544734963424735 
-2.8697704092880206e-6 
-0.0001242732542796825 
0.0015157087578667348 
0.005236363883779998 
-2.9056105246753747e-5 
0.0006964981100073359 
0.02976522973807754 
3.776126030676765e-5 
0.0002958926487700589 
0.005522529070085588 
-1.6048864357184738e-6 
-1.3999478412410628e-5 
-1.0862133924680496e-5 
1.2953425546784847e-5 
-6.811335876126525e-5 
-2.7379748363589235e-6 
-2.3314829429937676e-5 
-0.0005001909061227665 
0.006411735049937779 
-9.861105395888817e-6 
-1.2286690092226375e-5 
0.0030500324326960503 
0.0016906041948952983 
-1.597050721995692e-5 
-0.00028476275164793653 
-2.5481673460574534e-5 
5.544492881246641e-6 
-2.521792108313517e-5 
-0.0001654015593474676 
0.000236974572720302 
-5.963147403036805e-8 
-9.927539184982449e-6 
-1.603414025894968e-5 
0.00040518420315076433 
-3.399663053379845e-5 
8.759230028287319e-7 
-3.932211249394671e-5 
-0.00034798948173179073 
0.00017511083115174045 
-0.0007357336004224798 
0.1189677456019594 
6.557959926253004e-7 
-9.8008388092709e-5 
0.00020999412834771613 
-1.398171700033125e-6 
5.411277164429019e-6 
1.4673789687414274e-5 
0.00012744886468214186 
1.8580733029310352e-7 
3.1870660726076853e-6 
-6.186988248754262e-5 
-0.0004318398594635443 
0.3748936191635125 
6.894714553699857e-5 
0.00011982584715957875 
0.03455350748427596 
0.002628847544086615 
-4.0762355460453254e-5 
-1.2078640374639994e-5 
9.76100920796859e-6 
-0.00012219659387082253 
6.180196234146017e-7 
-1.0909968305294533e-5 
-1.2939132190307873e-6 
8.570034779241807e-5 
0.00027109538811226 
-2.364792573933018e-6 
-4.38853922322881e-5 
0.0005191790252893928 
0.2281958644177418 
2.3325018515788536e-6 
-7.582199777465345e-6 
0.00014342062138689306 
-0.00025477816455906477 
-1.6352618403592566e-6 
-2.3836893697948223e-6 
7.4868265745882585e-6 
2.9412346663990623e-6 
-8.819539447646041e-5 
3.640194117035748e-5 
-4.25336634335268e-5 
-0.0008692488365722684 
0.002730962473384637 
0.00040614920869995913 
0.07538184856567433 
0.028308355549817355 
0.06115610364408882 
3.658231495586766e-7 
-4.254369508847138e-6 
5.2866285914700656e-6 
6.538083478907992e-5 
-8.675276582837972e-7 
-5.9037831623912296e-5 
0.042196221256833075 
0.022176762542222013 
0.02045536454828231 
-2.7550709474903676e-6 
0.00027356555557517254 
0.000355399296684843 
-1.7260870429305255e-6 
-5.197751223205658e-6 
0.13756833761843823 
0.052709647548831756 
-1.8877035687552342e-5 
1.700438781119971e-5 
-0.000991500441061639 
0.0021633581430962456 
0.0004324179493171505 
0.0017077307159853612 
5.830235520175596e-6 
-1.249053687920431e-5 
8.088006428000943e-5 
8.435128866448467e-5 
0.01317259136563547 
0.0024163922472292747 
0.0003131675276714048 
0.0005249538105264358 
-0.00038715984613065457 
7.254963458401544e-7 
-7.388016835979363e-6 
5.5976689659694976e-6 
9.000358337597356e-6 
8.797594826672498e-7 
-8.34368315746263e-6 
2.274055796156926e-5 
-1.1950983726992674e-5 
1.1366510741297609e-5 
3.620132125397962e-5 
-9.497438607522103e-5 
-0.00013349602775028865 
0.0008883304307221599 
-0.0003702542857929839 
1.0447742364104185e-6 
1.2806643567426077e-6 
8.598552373008303e-7 
8.917086261623324e-6 
1.7158933333283149e-6 
7.172750228843358e-5 
1.0753464210852673e-5 
-0.00023305198309431688 
5.326138661869335e-5 
2.273117832003771e-6 
5.122013894115673e-7 
-5.7750130208626175e-6 
8.049654259448824e-6 
-3.383604231211816e-5 
6.248987924005886e-5 
4.938738598204902e-5 
0.0001380941166407575 
-1.1296594331074695e-7 
8.462515457751573e-7 
-2.8224365321195827e-6 
1.4967736189472067e-6 
-6.413154019244822e-7 
3.932270392235141e-6 
-6.336033106581198e-6 
-4.1581643190788665e-6 
0.00010059982297711788 
-3.983633958579453e-5 
3.842205908725424e-5 
0.056459565490834626 
0.0332650181252345 
0.06643538233594305 
6.798604012570472e-5 
-5.847346132889286e-5 
-4.3944415176809976e-5 
3.377856639937622e-5 
0.00021561526031718044 
-0.00047947093594994126 
1.0003660391432761e-7 
5.405922036560791e-7 
-5.699252675212082e-7 
1.5384197119468077e-5 
-2.29602454292053e-5 
-4.615807873381978e-6 
-2.538094968854542e-5 
3.95135353707524e-5 
2.5891071025715704e-5 
-0.0001686364255964384 
4.876691057902889e-5 
-0.00010736848323314368 
-5.81795557022017e-6 
2.3109313655681655e-6 
-3.898585253090137e-6 
-2.9015028847520225e-6 
4.588483959778054e-6 
-1.2988990161059443e-6 
-3.0127930314848122e-5 
-7.67927018470741e-5 
-0.0001987019271149672 
-3.510285791594219e-7 
5.0884838662733155e-5 
-4.788110783747319e-5 
5.237479751051178e-6 
2.1407827264653007e-6 
-2.6548039792932882e-5 
2.7170809328803595e-6 
-0.00042494409547236484 
0.0003629375463010382 
8.167663491203482e-5 
2.6211665966392577e-5 
2.7461468162393828e-6 
-2.2380515255592324e-6 
-4.36235002067255e-6 
-4.880625525142242e-6 
-2.7124580383324747e-6 
-1.1715290356916571e-6 
-7.877708388960788e-6 
-3.5423867226320354e-5 
-2.058919002549829e-5 
-0.00021125544507323617 
9.599433472044462e-5 
-2.454914895956085e-6 
-3.410645143047653e-6 
1.0894718018556593e-5 
-9.324299795750092e-6 
3.470783847861754e-5 
-4.83275851650023e-5 
0.00015510850955669208 
-0.00018269558849754548 
-3.7974287179734803e-7 
-1.1475636008072867e-7 
-1.5540273362680757e-7 
-1.1872397514547994e-6 
1.680028629531505e-5 
1.1571256658141183e-5 
1.4717731813376516e-5 
-1.997480795691215e-5 
0.013002746228431795 
0.012303910337929814 
3.333896083265401e-7 
5.0336478332380516e-6 
-2.419134698106991e-6 
1.9208258754870588e-5 
2.6215349525030696e-5 
-1.3377678600200955e-5 
0.0011288985954245924 
-0.00029012489198530073 
-0.001295457981666999 
-4.530794366338474e-5 
6.148145279797093e-5 
0.0004441517805079109 
0.0005047801227717981 
0.0005894512187314335 
3.157603722731738e-5 
3.563199502881834e-7 
0.00023786050494810777 
-6.408673098400565e-5 
-6.963410354761001e-5 
0.0006384831694933827 
1.0108887956489785e-6 
-2.240446927443864e-7 
-2.445921669663993e-5 
-4.247033565076836e-5 
6.862229131929531e-5 
-0.0001259263004810506 
7.415054715322462e-5 
-0.00017885201058146988 
0.0018111076551659956 
0.001883544852001482 
0.0007501549760159461 
2.673978266237868e-6 
-2.9302906849719593e-7 
-4.4813356686668775e-6 
1.5132473397869933e-5 
-6.182474093977115e-5 
8.40421674105057e-5 
0.000232868456107665 
-0.0001728260102005893 
-0.00017401061618161484 
-4.046691160474675e-6 
7.66653375329589e-6 
2.91516134650322e-7 
8.080141327655234e-6 
-6.01347327010577e-6 
-3.5261542786174194e-6 
-1.371301983114373e-6 
-3.5600356901947162e-6 
-1.6572556804764088e-6 
-2.279997292704432e-5 
9.580961037699117e-5 
-0.0005222714617010472 
-2.6268174947446717e-5 
4.1397486829431324e-5 
7.474983393457538e-7 
-9.555013563615694e-6 
6.77331181160109e-6 
5.571730568937605e-6 
-3.703203551381303e-5 
-5.9375131038513394e-5 
0.00015150330909877697 
2.4335838489533983e-5 
2.612178270346049e-6 
-8.314146957421083e-6 
-4.490014210195e-6 