# vtk DataFile Version 3.0 
Unstructured Grid 
ASCII 
DATASET UNSTRUCTURED_GRID
POINTS 2173 float 
-0.5 -0.5 0  
0.5 -0.5 0  
0.5 0.5 0  
-0.5 0.5 0  
-0.475 -0.5 0  
-0.45 -0.5 0  
-0.425 -0.5 0  
-0.4 -0.5 0  
-0.375 -0.5 0  
-0.35 -0.5 0  
-0.325 -0.5 0  
-0.3 -0.5 0  
-0.275 -0.5 0  
-0.25 -0.5 0  
-0.225 -0.5 0  
-0.2 -0.5 0  
-0.175 -0.5 0  
-0.15 -0.5 0  
-0.125 -0.5 0  
-0.1 -0.5 0  
-0.075 -0.5 0  
-0.05 -0.5 0  
-0.025 -0.5 0  
-1.3761214e-12 -0.5 0  
0.025 -0.5 0  
0.05 -0.5 0  
0.075 -0.5 0  
0.1 -0.5 0  
0.125 -0.5 0  
0.15 -0.5 0  
0.175 -0.5 0  
0.2 -0.5 0  
0.225 -0.5 0  
0.25 -0.5 0  
0.275 -0.5 0  
0.3 -0.5 0  
0.325 -0.5 0  
0.35 -0.5 0  
0.375 -0.5 0  
0.4 -0.5 0  
0.425 -0.5 0  
0.45 -0.5 0  
0.475 -0.5 0  
0.5 -0.475 0  
0.5 -0.45 0  
0.5 -0.425 0  
0.5 -0.4 0  
0.5 -0.375 0  
0.5 -0.35 0  
0.5 -0.325 0  
0.5 -0.3 0  
0.5 -0.275 0  
0.5 -0.25 0  
0.5 -0.225 0  
0.5 -0.2 0  
0.5 -0.175 0  
0.5 -0.15 0  
0.5 -0.125 0  
0.5 -0.1 0  
0.5 -0.075 0  
0.5 -0.05 0  
0.5 -0.025 0  
0.5 -1.3761214e-12 0  
0.5 0.025 0  
0.5 0.05 0  
0.5 0.075 0  
0.5 0.1 0  
0.5 0.125 0  
0.5 0.15 0  
0.5 0.175 0  
0.5 0.2 0  
0.5 0.225 0  
0.5 0.25 0  
0.5 0.275 0  
0.5 0.3 0  
0.5 0.325 0  
0.5 0.35 0  
0.5 0.375 0  
0.5 0.4 0  
0.5 0.425 0  
0.5 0.45 0  
0.5 0.475 0  
0.475 0.5 0  
0.45 0.5 0  
0.425 0.5 0  
0.4 0.5 0  
0.375 0.5 0  
0.35 0.5 0  
0.325 0.5 0  
0.3 0.5 0  
0.275 0.5 0  
0.25 0.5 0  
0.225 0.5 0  
0.2 0.5 0  
0.175 0.5 0  
0.15 0.5 0  
0.125 0.5 0  
0.1 0.5 0  
0.075 0.5 0  
0.05 0.5 0  
0.025 0.5 0  
1.3761214e-12 0.5 0  
-0.025 0.5 0  
-0.05 0.5 0  
-0.075 0.5 0  
-0.1 0.5 0  
-0.125 0.5 0  
-0.15 0.5 0  
-0.175 0.5 0  
-0.2 0.5 0  
-0.225 0.5 0  
-0.25 0.5 0  
-0.275 0.5 0  
-0.3 0.5 0  
-0.325 0.5 0  
-0.35 0.5 0  
-0.375 0.5 0  
-0.4 0.5 0  
-0.425 0.5 0  
-0.45 0.5 0  
-0.475 0.5 0  
-0.5 0.475 0  
-0.5 0.45 0  
-0.5 0.425 0  
-0.5 0.4 0  
-0.5 0.375 0  
-0.5 0.35 0  
-0.5 0.325 0  
-0.5 0.3 0  
-0.5 0.275 0  
-0.5 0.25 0  
-0.5 0.225 0  
-0.5 0.2 0  
-0.5 0.175 0  
-0.5 0.15 0  
-0.5 0.125 0  
-0.5 0.1 0  
-0.5 0.075 0  
-0.5 0.05 0  
-0.5 0.025 0  
-0.5 1.3761214e-12 0  
-0.5 -0.025 0  
-0.5 -0.05 0  
-0.5 -0.075 0  
-0.5 -0.1 0  
-0.5 -0.125 0  
-0.5 -0.15 0  
-0.5 -0.175 0  
-0.5 -0.2 0  
-0.5 -0.225 0  
-0.5 -0.25 0  
-0.5 -0.275 0  
-0.5 -0.3 0  
-0.5 -0.325 0  
-0.5 -0.35 0  
-0.5 -0.375 0  
-0.5 -0.4 0  
-0.5 -0.425 0  
-0.5 -0.45 0  
-0.5 -0.475 0  
-0.002115384 -0.00023065208 0  
-0.20714286 -0.20714286 0  
0.20714286 -0.20714286 0  
0.20714286 0.20714286 0  
-0.20714286 0.20714286 0  
-0.28155318 -0.0017231192 0  
0.0017231192 -0.28155318 0  
0.28155318 0.0017231192 0  
-0.0017231192 0.28155318 0  
0.3319978 -0.33098683 0  
0.33098683 0.3319978 0  
-0.3319978 0.33098683 0  
-0.33098683 -0.3319978 0  
-0.14015679 -0.06698606 0  
0.06698606 -0.14015679 0  
0.14015679 0.06698606 0  
-0.06698606 0.14015679 0  
-0.1387125 -0.34573975 0  
0.34573975 -0.1387125 0  
0.1387125 0.34573975 0  
-0.34573975 0.1387125 0  
0.14046866 -0.34602854 0  
0.34602854 0.14046866 0  
-0.14046866 0.34602854 0  
-0.34602854 -0.14046866 0  
-0.05869875 -0.16617337 0  
0.18217777 -0.061504476 0  
0.062312964 0.18362015 0  
-0.18362015 0.062312964 0  
-0.034321424 -0.38563195 0  
0.38563195 -0.034321424 0  
0.034321424 0.38563195 0  
-0.38563195 0.034321424 0  
0.39586002 -0.2428538 0  
0.2428538 0.39586002 0  
-0.39586002 0.2428538 0  
-0.2428538 -0.39586002 0  
0.23688246 -0.38952246 0  
0.38952246 0.23688246 0  
-0.23688246 0.38952246 0  
-0.38952246 -0.23688246 0  
-0.24287231 -0.09948847 0  
0.09948847 -0.24287231 0  
0.24287231 0.09948847 0  
-0.09948847 0.24287231 0  
-0.11560815 -0.24300627 0  
0.24300627 -0.11560815 0  
0.11560815 0.24300627 0  
-0.24300627 0.11560815 0  
-0.40192315 -0.4008276 0  
0.4008276 -0.40192315 0  
0.40192315 0.4008276 0  
-0.4008276 0.40192315 0  
0.06409326 -0.40289903 0  
0.40289903 0.06409326 0  
-0.06409326 0.40289903 0  
-0.40289903 -0.06409326 0  
0.2962961 -0.23982804 0  
0.23982804 0.2962961 0  
-0.2962961 0.23982804 0  
-0.23982804 -0.2962961 0  
-0.28087237 -0.21196799 0  
0.21196799 -0.28087237 0  
0.28087237 0.21196799 0  
-0.21196799 0.28087237 0  
-0.0901279 0.007867504 0  
-0.05002927 -0.07494272 0  
0.0873353 -0.009871756 0  
0.0071518295 0.09216282 0  
-0.14120433 -0.1484696 0  
-0.14581114 0.13960092 0  
0.1458264 -0.14505939 0  
0.13960092 0.14581114 0  
0.41838804 -0.3182741 0  
0.3182741 0.41838804 0  
-0.41838804 0.3182741 0  
-0.3182741 -0.41838804 0  
0.32118136 -0.41712493 0  
0.41712493 0.32118136 0  
-0.32118136 0.41712493 0  
-0.41712493 -0.32118136 0  
-0.19707234 -0.014843048 0  
0.018050108 -0.20183705 0  
0.19707234 0.014843048 0  
-0.014843048 0.19707234 0  
-0.10938372 -0.41847488 0  
0.41847488 -0.10938372 0  
0.10938372 0.41847488 0  
-0.41847488 0.10938372 0  
0.15773043 -0.4267032 0  
0.4267032 0.15773043 0  
-0.15773043 0.4267032 0  
-0.4267032 -0.15773043 0  
-0.3204562 -0.07174808 0  
0.07174808 -0.3204562 0  
0.3204562 0.07174808 0  
-0.07174808 0.3204562 0  
0.02801032 -0.07269879 0  
-0.31817523 0.069836795 0  
-0.069836795 -0.31817523 0  
0.31817523 -0.069836795 0  
0.069836795 0.31817523 0  
0.43106207 -0.17757268 0  
0.17757268 0.43106207 0  
-0.43106207 0.17757268 0  
-0.17757268 -0.43106207 0  
0.0703783 0.071201205 0  
-0.051593844 0.064346604 0  
0.099701226 -0.08333426 0  
0.2863281 -0.17248559 0  
0.17248559 0.2863281 0  
-0.2863281 0.17248559 0  
-0.17248559 -0.2863281 0  
-0.2341888 0.04979648 0  
-0.049194112 -0.231281 0  
0.23358595 -0.04946041 0  
0.04979648 0.2341888 0  
-0.009939441 -0.13691185 0  
-0.26560438 -0.17864102 0  
0.17864102 -0.26560438 0  
0.26560438 0.17864102 0  
-0.17864102 0.26560438 0  
0.013302229 -0.43510666 0  
0.43510666 0.013302229 0  
-0.013302229 0.43510666 0  
-0.43510666 -0.013302229 0  
0.09432827 0.114700764 0  
-0.11539384 0.093188405 0  
-0.3413634 -0.005100272 0  
0.005100272 -0.3413634 0  
0.3413634 0.005100272 0  
-0.005100272 0.3413634 0  
-0.19817708 -0.3508856 0  
0.3508856 -0.19817708 0  
0.19817708 0.3508856 0  
-0.3508856 0.19817708 0  
-0.34100306 -0.27216324 0  
0.27216324 -0.34100306 0  
0.34100306 0.27216324 0  
-0.27216324 0.34100306 0  
-0.20269383 -0.14403741 0  
0.14393912 -0.2028372 0  
0.2026342 0.14393856 0  
-0.14393856 0.2026342 0  
-0.1030633 -0.10524017 0  
-0.4394695 -0.104853734 0  
0.104853734 -0.4394695 0  
0.4394695 0.104853734 0  
-0.104853734 0.4394695 0  
-0.44156647 -0.44156647 0  
0.44156647 -0.44156647 0  
0.44156647 0.44156647 0  
-0.44156647 0.44156647 0  
-0.2683254 -0.44465622 0  
0.44465622 -0.2683254 0  
0.2683254 0.44465622 0  
-0.44465622 0.2683254 0  
0.2654342 -0.4435478 0  
0.4435478 0.2654342 0  
-0.2654342 0.4435478 0  
-0.4435478 -0.2654342 0  
-0.27373606 -0.34534052 0  
0.34534052 -0.27373606 0  
0.27373606 0.34534052 0  
-0.34534052 0.27373606 0  
-0.05307205 -0.4481981 0  
0.4481981 -0.05307205 0  
0.05307205 0.4481981 0  
-0.4481981 0.05307205 0  
-0.35614902 -0.19390328 0  
0.19390328 -0.35614902 0  
0.35614902 0.19390328 0  
-0.19390328 0.35614902 0  
-0.14022674 -0.012452113 0  
0.14171903 0.011271359 0  
-0.01125192 0.14089845 0  
-0.19556868 -0.06932378 0  
0.070511825 -0.19668652 0  
0.19556868 0.06932378 0  
-0.06932378 0.19556868 0  
-0.24951252 -0.039742906 0  
0.04037078 -0.2503529 0  
0.24951252 0.039742906 0  
-0.039742906 0.24951252 0  
0.44100407 -0.36164257 0  
0.36164257 0.44100407 0  
-0.44100407 0.36164257 0  
-0.36164257 -0.44100407 0  
-0.4451273 -0.36589316 0  
0.36589316 -0.4451273 0  
0.4451273 0.36589316 0  
-0.36589316 0.4451273 0  
0.1121834 -0.30242515 0  
0.30242515 0.1121834 0  
-0.1121834 0.30242515 0  
-0.30242515 -0.1121834 0  
-0.115146436 -0.19087775 0  
0.19190264 -0.11309679 0  
0.11520548 0.19263776 0  
-0.19263776 0.11520548 0  
-0.08287991 -0.37025127 0  
0.37025127 -0.08287991 0  
0.08287991 0.37025127 0  
-0.37025127 0.08287991 0  
0.23791528 -0.24381089 0  
0.24381089 0.23791528 0  
-0.23791528 0.24381089 0  
-0.24381089 -0.23791528 0  
-0.44626984 -0.21174923 0  
0.21174923 -0.44626984 0  
0.44626984 0.21174923 0  
-0.21174923 0.44626984 0  
0.35174853 -0.37705234 0  
0.37705234 0.35174853 0  
-0.35174853 0.37705234 0  
-0.37705234 -0.35174853 0  
-0.048605647 -0.023262763 0  
-0.1551113 -0.21381997 0  
0.21381997 -0.1551113 0  
0.1551113 0.21381997 0  
-0.21381997 0.1551113 0  
-0.29403278 -0.30027482 0  
0.30027482 -0.29403278 0  
0.29403278 0.30027482 0  
-0.30027482 0.29403278 0  
0.12173745 -0.390654 0  
0.390654 0.12173745 0  
-0.12173745 0.390654 0  
-0.390654 -0.12173745 0  
-0.12236246 -0.2979882 0  
0.2979882 -0.12236246 0  
0.12236246 0.2979882 0  
-0.2979882 0.12236246 0  
-0.0945969 -0.046371013 0  
0.035276897 -0.027358124 0  
-0.0076714605 0.051946 0  
-0.30809116 -0.17165439 0  
0.17165439 -0.30809116 0  
0.30809116 0.17165439 0  
-0.17165439 0.30809116 0  
-0.16592422 -0.10879113 0  
0.10700909 -0.1687818 0  
0.16864619 0.10664837 0  
-0.10664837 0.16864619 0  
-0.16784625 -0.38069874 0  
0.38069874 -0.16784625 0  
0.16784625 0.38069874 0  
-0.38069874 0.16784625 0  
-0.4563872 -0.05993889 0  
0.05993889 -0.4563872 0  
0.4563872 0.05993889 0  
-0.05993889 0.4563872 0  
0.31103167 -0.37412483 0  
0.37412483 0.31103167 0  
-0.31103167 0.37412483 0  
-0.37412483 -0.31103167 0  
-0.3909646 -0.012754724 0  
0.012754724 -0.3909646 0  
0.3909646 0.012754724 0  
-0.012754724 0.3909646 0  
0.44915667 -0.21679194 0  
0.21679194 0.44915667 0  
-0.44915667 0.21679194 0  
-0.21679194 -0.44915667 0  
0.045831423 0.12033131 0  
-0.12662303 0.045442794 0  
-0.3107799 -0.37355793 0  
0.37355793 -0.3107799 0  
0.3107799 0.37355793 0  
-0.37355793 0.3107799 0  
0.04152367 0.021693805 0  
-0.08040017 -0.2675595 0  
0.26794365 -0.08044455 0  
0.080500565 0.2680441 0  
-0.2680441 0.080500565 0  
-0.13753757 -0.45578164 0  
0.45578164 -0.13753757 0  
0.13753757 0.45578164 0  
-0.45578164 0.13753757 0  
-0.05507968 -0.12135967 0  
0.14172421 -0.09428923 0  
0.2571752 -0.19664502 0  
[...]
POINT_DATA 2173 
SCALARS T float 
LOOKUP_TABLE default 
6.202661932840519e-20 
5.999061212838883e-19 
-4.873603507060822e-18 
-1.6377784269858605e-18 
-9.344026537725729e-20 
-1.1767146184055683e-18 
1.493854780585595e-17 
-3.689316295990463e-18 
5.959176597894862e-18 
1.1031684351203556e-17 
6.776263871266935e-18 
-8.650409963284971e-19 
-5.718502258822547e-18 
6.8352043474023264e-18 
-1.5792262495992936e-18 
2.237797460201614e-18 
3.797641570918237e-18 
4.487490529126589e-18 
2.527555120370638e-18 
3.411058845111874e-18 
-7.50496505582065e-18 
9.357150491316297e-19 
1.044909749105894e-17 
-7.586781919543557e-18 
7.115715665574713e-18 
-7.168378472791852e-18 
-3.740400645904376e-18 
-3.1696309304177505e-17 
1.2200775691159755e-17 
4.513931262600615e-18 
-2.8680973154137186e-18 
2.136747962974949e-17 
-1.7823387053874598e-17 
3.3702887448295186e-17 
-4.675181983714738e-18 
1.6408353885082334e-17 
-1.588667969536677e-17 
-1.8413853170150953e-17 
-2.2168087626783766e-17 
-1.7403400666508453e-17 
-7.259600419880841e-18 
-8.686915457220206e-18 
-1.1964727334443026e-17 
1.3485843888545374e-17 
1.1437506080633175e-17 
2.0213248999950467e-17 
2.3320623130655228e-17 
2.9661126017305334e-17 
1.972118721157702e-17 
4.31898596211945e-17 
3.348080512756492e-17 
7.283550400785065e-17 
2.6339459640040463e-17 
1.5462601880688824e-17 
3.1997757996250553e-17 
1.5602180210762133e-17 
5.529511229567531e-17 
1.6878027260553825e-18 
2.543066831397498e-17 
1.643782015979551e-17 
1.3995916527017383e-17 
2.7592833526634264e-18 
-1.991914077289498e-18 
3.015769871410686e-17 
-8.162596755988593e-17 
1.4562038295775362e-16 
-2.6888065654606425e-17 
-6.815959190166268e-17 
-1.7602431565708314e-17 
5.097742146130917e-17 
-5.770384794414705e-17 
1.6021822386115328e-16 
-2.299832889898734e-16 
1.5049767150892486e-16 
-3.439747638036441e-16 
-5.480774085762699e-18 
9.135547078346779e-17 
3.696379436490646e-17 
1.5418337797651336e-17 
-1.8008709670324002e-17 
4.282361409446324e-17 
1.0249832736208507e-16 
-1.0702089824677022e-16 
-5.767299948600646e-17 
-6.753975062293654e-17 
4.8301454050790014e-17 
9.479893531431142e-17 
4.829675442354251e-17 
-2.385403628607149e-16 
-4.4048254570534627e-16 
-2.9640447430686517e-16 
1.2613484002241048e-16 
1.2348946152614577e-16 
-3.0651636852269783e-16 
3.7542995380063994e-17 
-1.0235688228156376e-15 
4.828370558097973e-16 
-2.728390768440518e-16 
-9.238055233613014e-17 
-1.064048268618603e-16 
2.088243837962694e-16 
-2.2591396672557947e-16 
1.8985059411013207e-16 
-2.4769959726512e-16 
4.67988356484388e-16 
-1.3448268960238633e-15 
-3.2196560704000694e-18 
-4.826547425522396e-16 
3.954513290373355e-17 
-1.587754780080502e-16 
2.7813248803129786e-16 
-4.221307289735018e-16 
-4.563304492680231e-16 
-1.0870897432953593e-15 
-2.667968954971139e-16 
-2.6923697346435397e-16 
2.7162264401996588e-18 
6.932970267578342e-18 
4.4063834819354706e-17 
1.5837902089636776e-17 
-1.4368009219883337e-18 
-1.525257339844417e-20 
1.0011266080476725e-17 
-6.32967042735875e-17 
3.0452181788248925e-17 
1.509284948503832e-17 
9.994886557322792e-17 
-1.490816650219846e-16 
4.2433149888429e-16 
-5.322281774312058e-16 
3.251392898684391e-16 
-2.115773613864489e-17 
3.9045405823488056e-17 
-4.5109514261261063e-17 
6.866786137606959e-17 
-1.5708108124012392e-19 
9.727118501386733e-18 
-8.94034503557412e-18 
6.125025180118653e-18 
1.7286892802307362e-18 
-3.4218064262747204e-18 
2.4384428360598756e-18 
-1.2355505208496539e-18 
-1.6880200808209834e-18 
-4.5058235221267715e-18 
3.644315506012246e-18 
-5.123035543742758e-19 
3.659161579247439e-18 
9.442694979844188e-20 
7.302834271344139e-19 
1.4125692958470182e-18 
-1.7784639925109837e-18 
6.804631719597713e-19 
-5.940877491925542e-18 
2.7418085424897694e-18 
2.352138093227221e-19 
1.3701474168709042e-18 
-1.2750882311876925e-17 
6.854715618507249e-19 
6.541752434402277e-19 
1.1726844650043377e-5 
5.457888240430607e-7 
-1.6520956752270966e-5 
-0.0003157122418563718 
0.3011347962486205 
0.018023868469557173 
-1.1694188133498883e-6 
-1.559541533131223e-5 
-0.0005186268097042852 
-8.124030173253282e-6 
7.987337021613284e-5 
-1.8505421205298714e-5 
1.5945362638792056e-7 
0.00024731446868442964 
-2.1218665078589643e-7 
7.134893485306258e-5 
0.026633203248144846 
1.0504237192435187e-6 
-8.242398950528189e-5 
0.0005205544610003356 
0.03376808543980147 
-1.4003630175082948e-5 
0.00018622185465476566 
-0.003428770709715783 
1.763250636299539e-6 
-2.7639132901377488e-6 
8.353719787915806e-5 
-0.00038268074731209105 
0.23605502847723783 
-1.3069687768752717e-7 
1.028485795404297e-5 
-0.0011862552828370088 
0.00075374380430429 
3.468925691532146e-5 
-0.00014102264289350103 
0.0009011664366363232 
-3.965146645272365e-6 
-7.733691417005505e-6 
-5.877838604062663e-5 
-0.0005876419470154828 
-2.7700162938634496e-6 
1.967252959288928e-5 
1.1597400982826723e-5 
-0.00015386577415909915 
0.014884976046699026 
-1.937203370722856e-6 
2.8984328278880285e-5 
-0.00034154445368268766 
0.45664682843911136 
4.694540378776262e-6 
3.770281672811427e-6 
-6.922995552543277e-5 
0.00020155771999358604 
-5.539334411246069e-6 
0.0001097055277097726 
-9.163376197203391e-5 
-2.2696842156347046e-5 
-1.9446502340431255e-5 
-0.00024614709633671936 
0.03391853420693071 
6.269808641182179e-7 
1.9288129203199594e-6 
9.175493543836016e-6 
-0.00022468188967796198 
0.027214363798960202 
0.004408188759686011 
-6.426219642890538e-6 
-1.1223976201475512e-5 
-5.7364735447179314e-5 
-4.048141666493682e-6 
0.3329571028482551 
-5.512716151821433e-7 
0.0006822532292396753 
-8.476884515925725e-6 
3.1008595459532104e-5 
0.00013501889322016587 
2.7537566656860163e-6 
-8.675914549690771e-7 
-0.0002930794883589238 
-0.0006961378672706876 
-2.9989458424602394e-6 
0.019408143474612324 
-7.905976015376016e-6 
-1.0862145674869291e-5 
-0.0004975632360250649 
5.207400768140699e-7 
6.45588775316209e-5 
-0.0001373214883198367 
0.00023118076732706278 
-2.6596328723071906e-6 
6.551859357318671e-5 
-0.0009188590615751913 
-9.140601199355671e-8 
-4.374857865479938e-6 
6.907014752420464e-6 
6.0108009712428576e-5 
-0.0012112921873848532 
-3.2226004469906114e-5 
0.05468945718893284 
-1.62197812243766e-6 
-4.814852334514759e-5 
-0.0003136815417375829 
3.165319365531975e-5 
-0.00012117121760651151 
0.00013736013625760836 
6.775126317920358e-7 
-4.738163288742087e-5 
0.005200456824822374 
-1.8960727422580939e-6 
1.832053570819836e-5 
0.0008423947894293598 
0.19091836964904382 
-4.932600398422102e-6 
0.18519559224091775 
1.6390562182641725e-6 
7.753556063142346e-5 
-0.0020069207941666232 
1.9757220066241883e-6 
1.1223999986761098e-6 
-2.78924223797954e-5 
-0.00014465878800321155 
0.046828115273341575 
-1.8460210103447047e-6 
6.0916005384379e-5 
6.0684137109153374e-5 
-3.536830023124961e-5 
-0.0004434127779031032 
0.11520332256045068 
0.0020842567563129732 
1.4505409944040065e-6 
1.2365776028161534e-5 
0.0005710059743642155 
8.131566088236636e-7 
-4.9084923019341656e-5 
0.0006308859905252954 
0.012660171726581671 
2.3493669239540016e-6 
-2.4849714742783946e-5 
-3.606868212129616e-5 
2.5322784929477046e-5 
-9.009700845825191e-6 
1.899434269704255e-5 
0.0004364041575311578 
0.1904364841147237 
-7.061515464899851e-6 
2.7921844281516063e-7 
-7.555135365356761e-6 
-9.120365935015267e-5 
-0.000311568047474321 
2.0517881286539587e-6 
6.427969115200615e-6 
-6.126999636201645e-5 
4.6777195461265435e-5 
-3.4769987541691993e-7 
-2.373582193759721e-5 
0.0002184772472922576 
0.00034334874165720645 
8.842091135092458e-6 
-9.37673365096563e-5 
-0.0005258544045776407 
-2.255424126318414e-6 
3.4588797494964364e-6 
-2.8446361412887033e-5 
-0.00010727789664260039 
0.0022885345726036976 
2.0184744742166462e-6 
3.105036048672529e-5 
1.8612041932208967e-5 
-3.0436083113664955e-5 
1.271900663124164e-6 
-1.7940243426699216e-5 
-0.00027223405527345443 
0.0012128566704970953 
0.009101078516530442 
-1.2986735622596965e-5 
-0.0009656472912708721 
0.0006553678618656596 
2.0417728217616987e-5 
-6.828774302876474e-6 
0.016964821540440798 
0.005205757374754637 
-1.6798517646781028e-6 
-1.7453534151640823e-5 
0.007976256721218187 
2.1295253844186158e-5 
-9.433028459564432e-5 
8.309932443551992e-5 
9.344638169010805e-7 
1.679711823322092e-6 
9.800615176989128e-6 
-0.00011480824913425706 
-5.796312495473115e-5 
-2.7686729423820163e-6 
-0.00016054888397877215 
0.001961832792566273 
-2.550316405379594e-5 
-9.25254576454893e-7 
3.558030817018924e-5 
-0.00015093897579267985 
0.5212341172267206 
2.623573848531047e-6 
-6.485312969804345e-5 
0.000643387104011959 
0.007127381455857932 
2.8312364057829912e-6 
0.00034726658964454797 
0.0928456526577323 
-1.8115856185894029e-6 
-1.7281385897485875e-6 
5.284026502819404e-6 
-1.6799533424790554e-5 
3.382259706798141e-5 
1.1768863435087596e-5 
-0.0002766559719174393 
-0.00011310780516573001 
1.8425633470811952e-7 
9.093154976741004e-5 
-1.2039524236763134e-6 
8.819407220725027e-6 
-0.00048012623826614286 
0.5660093263361234 
1.8856392951623952e-6 
-2.8430427160485695e-5 
-0.00011544710749818046 
0.0033498533387257244 
-8.871047103115643e-6 
-1.1778850451328209e-5 
-0.00038828634858329277 
-1.225627443469297e-6 
-5.025020977121835e-7 
-9.005608842534302e-5 
3.355415097725291e-5 
0.17598774202625753 
0.00017692682443320402 
-1.4402806269434423e-5 
0.00047360021827308983 
8.68232267690883e-7 
-2.9744370820986187e-6 
-0.0001767473265599176 
0.006183032272863117 
-1.8831866873687616e-5 
8.172602452108138e-6 
-0.00018918905138592062 
0.11464331360630393 
1.792600328102221e-7 
2.0494386026256903e-5 
-0.0003430486959345976 
0.004636252112943449 
-1.8015725212290705e-6 
-1.4752356252275293e-5 
-4.571763649480596e-6 
0.0005118900398650945 
-5.631638281756176e-6 
-0.00017851718673300338 
-0.0005729654609105396 
-3.776527529289131e-6 
-6.817848481884288e-5 
-3.1935704775368077e-6 
-0.00010335462345469702 
0.0010464085836997012 
9.848123699327387e-7 
-6.984460663985324e-5 
4.528334997358905e-5 
3.93397597940164e-6 
-0.0002141811728353979 
0.056349780833531295 
1.3748584490362163e-6 
5.971478166039497e-6 
-0.00019941830809595002 
-1.1678946615766648e-6 
0.000138648279207173 
-5.407203144331564e-6 
-0.00010503887155482381 
0.0007977474643976755 
0.22254228914554003 
-3.26624030401679e-6 
-3.3037664278563883e-6 
-0.0005217220151854908 
3.867256572273637e-6 
-8.272506988444282e-6 
7.10563592290866e-6 
-1.0986227858438233e-5 
-0.0003318986403915841 
0.23910423364662975 
-6.596419998741402e-8 
-2.147423991416379e-5 
1.7020162561228927e-6 
5.668135357015295e-7 
7.787847874218799e-6 
-0.00030105989215604187 
-0.00017321659826846804 
2.2684070045670807e-5 
-5.318357189298385e-5 
-5.163190294697524e-5 
-4.723922119599153e-6 
-5.571975965646458e-6 
-4.49120692848157e-5 
0.0001447039706322022 
-6.485179913392925e-8 
-4.6086534567662365e-5 
0.005106918986102904 
0.0002592210366709188 
-5.6521098052399385e-6 
-0.00014502667190490062 
0.004843555034339612 
0.0006942366877990159 
2.6054599290305876e-5 
5.996782677982513e-6 
-1.8093710671318413e-6 
1.713703212496375e-5 
0.0015988196479678925 
0.09852908283461742 
0.048553979147551704 
-7.521041460775384e-7 
-0.00018345541654899564 
0.0018826561882559886 
7.922963757115065e-7 
9.083271602027223e-7 
1.4096142696457083e-5 
-0.000255273630096208 
-1.2052592840624918e-5 
-1.807260132023998e-5 
1.392360850249246e-7 
-0.00012027344106781284 
-0.0035043791820692214 
-1.2536383903721309e-6 
-2.2865452704421543e-6 
1.2375879518128203e-5 
-0.00024542130629339793 
0.0001666032263965691 
4.1578723453656925e-6 
0.010885789158427783 
-7.367098953663752e-7 
-4.309841827585501e-5 
0.0008552413517641811 
-3.090969258073082e-6 
-4.947085984480194e-5 
-8.586896909101108e-5 
2.0752404063200348e-6 
-4.0166867228715265e-6 
1.0046318241550573e-5 
0.0013251323044176583 
-1.3522110374935571e-5 
-2.3950334002111236e-5 
-4.5729964318845035e-6 
-0.00011538174889894973 
-0.00027720981127678956 
-8.693330511080016e-7 
0.4417274020663736 
-2.5195920798741273e-5 
-0.0001255936925402931 
-7.201067035014835e-7 
9.3277848560696e-6 
-4.8062205861182676e-5 
-2.460657585406169e-6 
1.2148643603985348e-6 
-3.642193857588841e-5 
0.0001849596147068028 
0.00649071665126101 
-5.27536304158594e-6 
-3.349233396052467e-5 
0.0002142396071071615 
-8.231604595581859e-6 
8.031349523645404e-7 
1.1400595814998207e-6 
5.623370561326458e-5 
0.0007690586636203898 
-5.988609445810584e-6 
6.670147137732282e-5 
4.795393161981306e-5 
-5.092729691566553e-6 
1.151850703807893e-6 
-4.228321836523026e-5 
2.9641772284438212e-5 
-5.925740047132165e-6 
0.05991362882856282 
-4.13550121197139e-6 
-8.74351864176994e-5 
0.0012765208958464517 
0.003086588259634023 
0.00015604397040025063 
0.003052976001325614 
0.00026564488046937465 
0.2839440442636327 
0.0014185356553842508 
-6.012579062413648e-6 
-2.2994878486391535e-5 
0.004658168241075531 
0.00029477131500078705 
3.0494144168891103e-6 
-1.4459620411565163e-5 
1.397497533559721e-5 
-3.380048427592315e-5 
2.206454738247394e-6 
-1.9622420972768275e-5 
-0.000340365095833429 
0.10882547206540158 
-2.739926353440949e-6 
0.00027723850173051983 
6.825557928748944e-5 
2.129890371340939e-6 
0.00039680614379944315 
-1.5209503688792677e-5 
3.092397996858733e-5 
0.0006200881369501544 
0.06667304427836912 
-1.6315309449561744e-6 
5.103184488088581e-5 
0.00015442786729665293 
-4.295209084218361e-6 
-1.0619934671085884e-5 
0.0010671683598856843 
0.4123940284078738 
-3.019005626895982e-6 
2.724099586286125e-5 
0.030325711616034486 
-1.9716315897445403e-6 
0.00017017985879329625 
0.01136291688541694 
-8.033195319388519e-7 
0.044515900048841886 
3.957161659665265e-6 
-4.1414717866027324e-5 
0.0014573076096073135 
2.440009112084446e-6 
-1.7210508382419427e-5 
9.973393853234327e-5 
0.002222804199223484 
-1.4216714047454357e-6 
6.28524220735842e-5 
-0.001324829537257013 
0.3795258848044093 
-3.756147564406449e-5 
-0.000213388901903889 
0.0050043916291094125 
-2.814850263208139e-6 
2.983218490227341e-6 
-4.8467492618112625e-5 
0.0007199668560866191 
0.0005882538426181316 
5.330163112685092e-7 
-5.407241727207719e-6 
0.0005757022474483569 
0.06335220516078867 
-1.371426836381583e-6 
1.9990320418894908e-5 
2.5138209282525482e-5 
0.05773306109804521 
0.0002461703745100097 
0.117600749396842 
3.7283656580009765e-6 
8.403963336739866e-6 
0.0004043667751562332 
1.6770569634596196e-6 
-2.988569539478909e-6 
1.0226879137233195e-7 
-3.8661553056357805e-5 
1.6160287862129656e-5 
-7.413424399702221e-6 
2.728340992461839e-6 
0.000347988546981764 
0.03478762255734556 
0.06188384631712388 
4.310676983046629e-5 
0.0011235340958344784 
0.01475205429931959 
-1.7141969944426237e-5 
-1.95786210502029e-6 
-9.189507586994656e-5 
0.0003887684683823692 
0.00027270615710740575 
-4.1066724834126976e-6 
3.603331850760113e-6 
1.2992044816005564e-5 
-0.000306025636622669 
-0.0002358544562247292 
-1.4111946077278179e-5 
5.372454917643952e-6 
0.16978031811681307 
-1.0769500237748993e-6 
5.058138938734232e-6 
-5.478401557486785e-5 
-9.422284510103225e-5 
-3.9973684432743416e-5 
5.3077583859430767e-8 
-3.2694111332222314e-7 
-9.385415724533411e-7 
2.0017055233870647e-5 
-4.3498129498980586e-5 
-3.3414272478736575e-6 
0.00014020363904819935 
0.000353039933346053 
-8.254452844338698e-5 
0.5312065682473807 
0.5847137947956424 
0.547676576269069 
-7.588288767721268e-7 
-2.1928618250021753e-6 
1.8270485612210918e-6 
-0.00012075244839583293 
3.53468140336845e-5 
-8.337623775889102e-6 
3.8574322532030604e-5 
0.0009622447560781075 
0.0007580566916924392 
0.14448296201528438 
0.163106190335077 
0.22973582683280355 
-1.3833596085480354e-6 
2.866553361783105e-6 
0.42081863644864975 
0.4624284369668917 
2.9950667083791858e-5 
-2.8523552263917497e-5 
0.0006536549340858048 
-0.0003598104165577244 
0.2775786777547963 
0.3273309934931048 
-1.5435063864853982e-6 
2.3356995971029387e-6 
-7.505759865731481e-5 
-2.4026701293595315e-5 
0.0015982381371904121 
-0.00025838042433462967 
-1.6430485203416812e-5 
0.0003126621175150599 
0.00014896353006372775 
3.014687804115582e-5 
-1.329731457270702e-5 
-1.0839862714709877e-5 
-5.660355018091446e-6 
-4.82412453265475e-6 
4.8860177447334216e-6 
7.871569579030522e-7 
1.0950235059870961e-6 
1.1760720468427377e-5 
1.3437653119123292e-5 
-4.432846803225182e-5 
-0.0003132575897606562 
-0.00029003392017565993 
0.0005900782259651257 
-0.00038096703870741825 
-0.00016700678752336703 
0.00039068935468952135 
7.569343694775301e-7 
-6.058645082250183e-7 
7.302694515385942e-6 
1.1325505622705896e-5 
-1.3665001359445328e-5 
-1.711993630406052e-5 
9.86856012785835e-6 
-4.311588229614687e-6 
9.061277001945546e-6 
-1.9771614003414988e-6 
9.8637299373551e-6 
1.3263202905469622e-5 
7.74485403179162e-5 
2.5567758784632773e-5 
-1.9586822925521436e-5 
2.059571510631146e-5 
0.03489042377113772 
0.013568385851861847 
0.0079335251499028 
-3.8638106413406037e-7 
3.8795851624171394e-6 
-1.6779886274085583e-6 
8.329630601333792e-5 
-1.5082138299058099e-5 
-1.921623692139917e-5 
-0.002371105616314665 
0.0008702728056069616 
3.0905492977840864e-5 
4.058946242380295e-5 
1.366078989200493e-5 
1.60101043392056e-5 
-0.00013165623259130837 
0.0001859261864853442 
-0.00019900197512410137 
-0.0002281199931664911 
-6.151140177903794e-5 
0.00019916126944078349 
-2.6148555967477056e-6 
3.4321855531736324e-6 
1.8149932222847542e-7 
-7.806100937907051e-6 
-9.693883326233307e-6 
-2.003669629749218e-6 
0.0001637941636046915 
-2.755716355453006e-5 
-5.0178566216996405e-5 
0.0004898897887554295 
-0.00019759700514616237 
0.00027517176631479943 
1.788880707839608e-7 
3.6357858806324423e-7 
8.647719356444405e-7 
3.074129817809175e-6 
1.871798541006228e-5 
8.415499517247184e-5 
0.00018364431898551037 
-1.4910332569233807e-5 
8.143651106332145e-5 
0.0001888329302036178 
-7.171422354544559e-7 
2.9779011005950128e-6 
4.064502253427345e-6 
-0.00013825663088544318 
-8.192372659183793e-5 
-0.00016486736988005404 
-0.00013699272021677796 
-6.647116662034838e-7 
-7.892571240624404e-7 
0.00725616338348032 
0.0018462778608022135 
0.0012301709111546136 
-3.1872367468109945e-6 
4.850871255074525e-6 
7.639224265045193e-6 
-2.247226216431447e-6 
-6.34534556037536e-5 
0.00011681282556280514 
0.00021643590871671652 
0.00013074303663643076 
-3.964503817735454e-6 
1.478031016294527e-6 
5.5517203801003035e-6 
6.612312956472968e-6 
-5.473412482605226e-5 
-3.920336197204575e-5 
9.412632763749741e-5 
-2.424909890870911e-5 
0.02822316971467024 
0.005775465131643305 
2.2259423567807916e-6 
-3.0069874663791216e-6 
3.8771905086619325e-5 
7.13723207240565e-5 
-0.00011907920088146819 
-0.0020247215555900563 
2.3548160708237204e-6 
-3.07334733238288e-6 
5.23453958266464e-7 
-2.1842853761727553e-5 
-7.5371642768482154e-6 
1.7135580799022728e-5 
7.731543913844565e-5 
-0.0001137154202275066 
0.00011766276818694065 
-0.0005340567368651637 
-0.00022021661153602987 
0.0009955431731541496 
0.00029121525047012305 
-5.760848616557532e-5 
-2.1258144913353283e-6 
3.305673349307229e-6 
4.048767460448649e-5 
3.381460322866066e-5 
-0.0004499273850308519 
-9.531687697702313e-7 
4.717328597516794e-5 
0.00010746430291280787 
-9.444520576945291e-6 
4.369361183154036e-6 
1.2955364176829825e-5 
-0.000194436033869075 
0.00018182774364317036 
-2.8094623743271557e-5 
-0.0005677134070751752 
0.0001588538792119237 
0.0011840719992669024 
3.436438926403938e-7 
9.174132735104083e-7 
1.4205650352212477e-6 
4.831142482440129e-6 
-1.418058162123913e-5 
9.273615830239987e-6 
2.124346318314508e-5 
3.489596762182678e-5 
-0.00024554071870569645 
0.00024167880775801968 
4.778710643506525e-5 
0.0002988309217874209 
-2.4932665966886216e-6 
1.9969561688277536e-6 
1.5157854121486826e-6 
8.313280774682199e-7 
3.9402191164581225e-7 
-5.198702496535363e-6 
-8.385924145947193e-7 
-0.00016427972487841205 
0.00025214282890606327 
-0.00010958102161560637 
0.0005899746488699705 
-4.941965286033457e-7 
-1.1973531049922014e-5 
-1.10084447535032e-5 
0.0002515414927661992 
-1.5926323317224616e-5 
-2.1080078644941096e-6 
0.0002211604333061497 
-0.00012616486020859064 
0.0003664853948649638 
6.161346330187382e-5 