# vtk DataFile Version 3.0 
Unstructured Grid 
ASCII 
DATASET UNSTRUCTURED_GRID
POINTS 2173 float 
-0.5 -0.5 0  
0.5 -0.5 0  
0.5 0.5 0  
-0.5 0.5 0  
-0.475 -0.5 0  
-0.45 -0.5 0  
-0.425 -0.5 0  
-0.4 -0.5 0  
-0.375 -0.5 0  
-0.35 -0.5 0  
-0.325 -0.5 0  
-0.3 -0.5 0  
-0.275 -0.5 0  
-0.25 -0.5 0  
-0.225 -0.5 0  
-0.2 -0.5 0  
-0.175 -0.5 0  
-0.15 -0.5 0  
-0.125 -0.5 0  
-0.1 -0.5 0  
-0.075 -0.5 0  
-0.05 -0.5 0  
-0.025 -0.5 0  
-1.3761214e-12 -0.5 0  
0.025 -0.5 0  
0.05 -0.5 0  
0.075 -0.5 0  
0.1 -0.5 0  
0.125 -0.5 0  
0.15 -0.5 0  
0.175 -0.5 0  
0.2 -0.5 0  
0.225 -0.5 0  
0.25 -0.5 0  
0.275 -0.5 0  
0.3 -0.5 0  
0.325 -0.5 0  
0.35 -0.5 0  
0.375 -0.5 0  
0.4 -0.5 0  
0.425 -0.5 0  
0.45 -0.5 0  
0.475 -0.5 0  
0.5 -0.475 0  
0.5 -0.45 0  
0.5 -0.425 0  
0.5 -0.4 0  
0.5 -0.375 0  
0.5 -0.35 0  
0.5 -0.325 0  
0.5 -0.3 0  
0.5 -0.275 0  
0.5 -0.25 0  
0.5 -0.225 0  
0.5 -0.2 0  
0.5 -0.175 0  
0.5 -0.15 0  
0.5 -0.125 0  
0.5 -0.1 0  
0.5 -0.075 0  
0.5 -0.05 0  
0.5 -0.025 0  
0.5 -1.3761214e-12 0  
0.5 0.025 0  
0.5 0.05 0  
0.5 0.075 0  
0.5 0.1 0  
0.5 0.125 0  
0.5 0.15 0  
0.5 0.175 0  
0.5 0.2 0  
0.5 0.225 0  
0.5 0.25 0  
0.5 0.275 0  
0.5 0.3 0  
0.5 0.325 0  
0.5 0.35 0  
0.5 0.375 0  
0.5 0.4 0  
0.5 0.425 0  
0.5 0.45 0  
0.5 0.475 0  
0.475 0.5 0  
0.45 0.5 0  
0.425 0.5 0  
0.4 0.5 0  
0.375 0.5 0  
0.35 0.5 0  
0.325 0.5 0  
0.3 0.5 0  
0.275 0.5 0  
0.25 0.5 0  
0.225 0.5 0  
0.2 0.5 0  
0.175 0.5 0  
0.15 0.5 0  
0.125 0.5 0  
0.1 0.5 0  
0.075 0.5 0  
0.05 0.5 0  
0.025 0.5 0  
1.3761214e-12 0.5 0  
-0.025 0.5 0  
-0.05 0.5 0  
-0.075 0.5 0  
-0.1 0.5 0  
-0.125 0.5 0  
-0.15 0.5 0  
-0.175 0.5 0  
-0.2 0.5 0  
-0.225 0.5 0  
-0.25 0.5 0  
-0.275 0.5 0  
-0.3 0.5 0  
-0.325 0.5 0  
-0.35 0.5 0  
-0.375 0.5 0  
-0.4 0.5 0  
-0.425 0.5 0  
-0.45 0.5 0  
-0.475 0.5 0  
-0.5 0.475 0  
-0.5 0.45 0  
-0.5 0.425 0  
-0.5 0.4 0  
-0.5 0.375 0  
-0.5 0.35 0  
-0.5 0.325 0  
-0.5 0.3 0  
-0.5 0.275 0  
-0.5 0.25 0  
-0.5 0.225 0  
-0.5 0.2 0  
-0.5 0.175 0  
-0.5 0.15 0  
-0.5 0.125 0  
-0.5 0.1 0  
-0.5 0.075 0  
-0.5 0.05 0  
-0.5 0.025 0  
-0.5 1.3761214e-12 0  
-0.5 -0.025 0  
-0.5 -0.05 0  
-0.5 -0.075 0  
-0.5 -0.1 0  
-0.5 -0.125 0  
-0.5 -0.15 0  
-0.5 -0.175 0  
-0.5 -0.2 0  
-0.5 -0.225 0  
-0.5 -0.25 0  
-0.5 -0.275 0  
-0.5 -0.3 0  
-0.5 -0.325 0  
-0.5 -0.35 0  
-0.5 -0.375 0  
-0.5 -0.4 0  
-0.5 -0.425 0  
-0.5 -0.45 0  
-0.5 -0.475 0  
-0.002115384 -0.00023065208 0  
-0.20714286 -0.20714286 0  
0.20714286 -0.20714286 0  
0.20714286 0.20714286 0  
-0.20714286 0.20714286 0  
-0.28155318 -0.0017231192 0  
0.0017231192 -0.28155318 0  
0.28155318 0.0017231192 0  
-0.0017231192 0.28155318 0  
0.3319978 -0.33098683 0  
0.33098683 0.3319978 0  
-0.3319978 0.33098683 0  
-0.33098683 -0.3319978 0  
-0.14015679 -0.06698606 0  
0.06698606 -0.14015679 0  
0.14015679 0.06698606 0  
-0.06698606 0.14015679 0  
-0.1387125 -0.34573975 0  
0.34573975 -0.1387125 0  
0.1387125 0.34573975 0  
-0.34573975 0.1387125 0  
0.14046866 -0.34602854 0  
0.34602854 0.14046866 0  
-0.14046866 0.34602854 0  
-0.34602854 -0.14046866 0  
-0.05869875 -0.16617337 0  
0.18217777 -0.061504476 0  
0.062312964 0.18362015 0  
-0.18362015 0.062312964 0  
-0.034321424 -0.38563195 0  
0.38563195 -0.034321424 0  
0.034321424 0.38563195 0  
-0.38563195 0.034321424 0  
0.39586002 -0.2428538 0  
0.2428538 0.39586002 0  
-0.39586002 0.2428538 0  
-0.2428538 -0.39586002 0  
0.23688246 -0.38952246 0  
0.38952246 0.23688246 0  
-0.23688246 0.38952246 0  
-0.38952246 -0.23688246 0  
-0.24287231 -0.09948847 0  
0.09948847 -0.24287231 0  
0.24287231 0.09948847 0  
-0.09948847 0.24287231 0  
-0.11560815 -0.24300627 0  
0.24300627 -0.11560815 0  
0.11560815 0.24300627 0  
-0.24300627 0.11560815 0  
-0.40192315 -0.4008276 0  
0.4008276 -0.40192315 0  
0.40192315 0.4008276 0  
-0.4008276 0.40192315 0  
0.06409326 -0.40289903 0  
0.40289903 0.06409326 0  
-0.06409326 0.40289903 0  
-0.40289903 -0.06409326 0  
0.2962961 -0.23982804 0  
0.23982804 0.2962961 0  
-0.2962961 0.23982804 0  
-0.23982804 -0.2962961 0  
-0.28087237 -0.21196799 0  
0.21196799 -0.28087237 0  
0.28087237 0.21196799 0  
-0.21196799 0.28087237 0  
-0.0901279 0.007867504 0  
-0.05002927 -0.07494272 0  
0.0873353 -0.009871756 0  
0.0071518295 0.09216282 0  
-0.14120433 -0.1484696 0  
-0.14581114 0.13960092 0  
0.1458264 -0.14505939 0  
0.13960092 0.14581114 0  
0.41838804 -0.3182741 0  
0.3182741 0.41838804 0  
-0.41838804 0.3182741 0  
-0.3182741 -0.41838804 0  
0.32118136 -0.41712493 0  
0.41712493 0.32118136 0  
-0.32118136 0.41712493 0  
-0.41712493 -0.32118136 0  
-0.19707234 -0.014843048 0  
0.018050108 -0.20183705 0  
0.19707234 0.014843048 0  
-0.014843048 0.19707234 0  
-0.10938372 -0.41847488 0  
0.41847488 -0.10938372 0  
0.10938372 0.41847488 0  
-0.41847488 0.10938372 0  
0.15773043 -0.4267032 0  
0.4267032 0.15773043 0  
-0.15773043 0.4267032 0  
-0.4267032 -0.15773043 0  
-0.3204562 -0.07174808 0  
0.07174808 -0.3204562 0  
0.3204562 0.07174808 0  
-0.07174808 0.3204562 0  
0.02801032 -0.07269879 0  
-0.31817523 0.069836795 0  
-0.069836795 -0.31817523 0  
0.31817523 -0.069836795 0  
0.069836795 0.31817523 0  
0.43106207 -0.17757268 0  
0.17757268 0.43106207 0  
-0.43106207 0.17757268 0  
-0.17757268 -0.43106207 0  
0.0703783 0.071201205 0  
-0.051593844 0.064346604 0  
0.099701226 -0.08333426 0  
0.2863281 -0.17248559 0  
0.17248559 0.2863281 0  
-0.2863281 0.17248559 0  
-0.17248559 -0.2863281 0  
-0.2341888 0.04979648 0  
-0.049194112 -0.231281 0  
0.23358595 -0.04946041 0  
0.04979648 0.2341888 0  
-0.009939441 -0.13691185 0  
-0.26560438 -0.17864102 0  
0.17864102 -0.26560438 0  
0.26560438 0.17864102 0  
-0.17864102 0.26560438 0  
0.013302229 -0.43510666 0  
0.43510666 0.013302229 0  
-0.013302229 0.43510666 0  
-0.43510666 -0.013302229 0  
0.09432827 0.114700764 0  
-0.11539384 0.093188405 0  
-0.3413634 -0.005100272 0  
0.005100272 -0.3413634 0  
0.3413634 0.005100272 0  
-0.005100272 0.3413634 0  
-0.19817708 -0.3508856 0  
0.3508856 -0.19817708 0  
0.19817708 0.3508856 0  
-0.3508856 0.19817708 0  
-0.34100306 -0.27216324 0  
0.27216324 -0.34100306 0  
0.34100306 0.27216324 0  
-0.27216324 0.34100306 0  
-0.20269383 -0.14403741 0  
0.14393912 -0.2028372 0  
0.2026342 0.14393856 0  
-0.14393856 0.2026342 0  
-0.1030633 -0.10524017 0  
-0.4394695 -0.104853734 0  
0.104853734 -0.4394695 0  
0.4394695 0.104853734 0  
-0.104853734 0.4394695 0  
-0.44156647 -0.44156647 0  
0.44156647 -0.44156647 0  
0.44156647 0.44156647 0  
-0.44156647 0.44156647 0  
-0.2683254 -0.44465622 0  
0.44465622 -0.2683254 0  
0.2683254 0.44465622 0  
-0.44465622 0.2683254 0  
0.2654342 -0.4435478 0  
0.4435478 0.2654342 0  
-0.2654342 0.4435478 0  
-0.4435478 -0.2654342 0  
-0.27373606 -0.34534052 0  
0.34534052 -0.27373606 0  
0.27373606 0.34534052 0  
-0.34534052 0.27373606 0  
-0.05307205 -0.4481981 0  
0.4481981 -0.05307205 0  
0.05307205 0.4481981 0  
-0.4481981 0.05307205 0  
-0.35614902 -0.19390328 0  
0.19390328 -0.35614902 0  
0.35614902 0.19390328 0  
-0.19390328 0.35614902 0  
-0.14022674 -0.012452113 0  
0.14171903 0.011271359 0  
-0.01125192 0.14089845 0  
-0.19556868 -0.06932378 0  
0.070511825 -0.19668652 0  
0.19556868 0.06932378 0  
-0.06932378 0.19556868 0  
-0.24951252 -0.039742906 0  
0.04037078 -0.2503529 0  
0.24951252 0.039742906 0  
-0.039742906 0.24951252 0  
0.44100407 -0.36164257 0  
0.36164257 0.44100407 0  
-0.44100407 0.36164257 0  
-0.36164257 -0.44100407 0  
-0.4451273 -0.36589316 0  
0.36589316 -0.4451273 0  
0.4451273 0.36589316 0  
-0.36589316 0.4451273 0  
0.1121834 -0.30242515 0  
0.30242515 0.1121834 0  
-0.1121834 0.30242515 0  
-0.30242515 -0.1121834 0  
-0.115146436 -0.19087775 0  
0.19190264 -0.11309679 0  
0.11520548 0.19263776 0  
-0.19263776 0.11520548 0  
-0.08287991 -0.37025127 0  
0.37025127 -0.08287991 0  
0.08287991 0.37025127 0  
-0.37025127 0.08287991 0  
0.23791528 -0.24381089 0  
0.24381089 0.23791528 0  
-0.23791528 0.24381089 0  
-0.24381089 -0.23791528 0  
-0.44626984 -0.21174923 0  
0.21174923 -0.44626984 0  
0.44626984 0.21174923 0  
-0.21174923 0.44626984 0  
0.35174853 -0.37705234 0  
0.37705234 0.35174853 0  
-0.35174853 0.37705234 0  
-0.37705234 -0.35174853 0  
-0.048605647 -0.023262763 0  
-0.1551113 -0.21381997 0  
0.21381997 -0.1551113 0  
0.1551113 0.21381997 0  
-0.21381997 0.1551113 0  
-0.29403278 -0.30027482 0  
0.30027482 -0.29403278 0  
0.29403278 0.30027482 0  
-0.30027482 0.29403278 0  
0.12173745 -0.390654 0  
0.390654 0.12173745 0  
-0.12173745 0.390654 0  
-0.390654 -0.12173745 0  
-0.12236246 -0.2979882 0  
0.2979882 -0.12236246 0  
0.12236246 0.2979882 0  
-0.2979882 0.12236246 0  
-0.0945969 -0.046371013 0  
0.035276897 -0.027358124 0  
-0.0076714605 0.051946 0  
-0.30809116 -0.17165439 0  
0.17165439 -0.30809116 0  
0.30809116 0.17165439 0  
-0.17165439 0.30809116 0  
-0.16592422 -0.10879113 0  
0.10700909 -0.1687818 0  
0.16864619 0.10664837 0  
-0.10664837 0.16864619 0  
-0.16784625 -0.38069874 0  
0.38069874 -0.16784625 0  
0.16784625 0.38069874 0  
-0.38069874 0.16784625 0  
-0.4563872 -0.05993889 0  
0.05993889 -0.4563872 0  
0.4563872 0.05993889 0  
-0.05993889 0.4563872 0  
0.31103167 -0.37412483 0  
0.37412483 0.31103167 0  
-0.31103167 0.37412483 0  
-0.37412483 -0.31103167 0  
-0.3909646 -0.012754724 0  
0.012754724 -0.3909646 0  
0.3909646 0.012754724 0  
-0.012754724 0.3909646 0  
0.44915667 -0.21679194 0  
0.21679194 0.44915667 0  
-0.44915667 0.21679194 0  
-0.21679194 -0.44915667 0  
0.045831423 0.12033131 0  
-0.12662303 0.045442794 0  
-0.3107799 -0.37355793 0  
0.37355793 -0.3107799 0  
0.3107799 0.37355793 0  
-0.37355793 0.3107799 0  
0.04152367 0.021693805 0  
-0.08040017 -0.2675595 0  
0.26794365 -0.08044455 0  
0.080500565 0.2680441 0  
-0.2680441 0.080500565 0  
-0.13753757 -0.45578164 0  
0.45578164 -0.13753757 0  
0.13753757 0.45578164 0  
-0.45578164 0.13753757 0  
-0.05507968 -0.12135967 0  
0.14172421 -0.09428923 0  
0.2571752 -0.19664502 0  
[...]
POINT_DATA 2173 
SCALARS T float 
LOOKUP_TABLE default 
-2.5003535678124446e-18 
-1.2471228071882126e-17 
-4.098593218885297e-20 
-3.810873164347916e-19 
-3.644357976999293e-17 
2.4952028350679573e-17 
-8.324999213166557e-17 
1.4515193821104793e-16 
7.46026971777198e-17 
-2.1550733432922e-17 
-1.2746356963882102e-16 
-2.5733694627935617e-17 
1.9355047410641653e-16 
-1.3920212301037943e-16 
3.573726935829921e-16 
-6.595776613092247e-17 
1.0424692886549343e-16 
1.1200347226119257e-17 
-2.827211212949095e-16 
1.111021438048955e-16 
-4.26536275782841e-18 
2.8374087578932784e-17 
-1.5672877066913705e-16 
1.5994584669999703e-17 
1.722496156221676e-16 
-3.9274814976844345e-16 
4.727063982057534e-16 
8.580639299074834e-18 
1.8716453867454668e-16 
3.477547146576236e-16 
-4.501406586551671e-16 
7.747174422457682e-16 
-1.2447619414046725e-15 
3.710710732539071e-16 
3.671566704605663e-16 
5.714434482973132e-16 
-1.4716160871886414e-16 
1.0851136884347622e-15 
2.0500047704239613e-16 
-1.2894033718633647e-16 
4.3052860873642244e-16 
2.4729024160522128e-17 
1.2311973058936425e-18 
-3.26109005767208e-17 
-7.25764310836763e-18 
-7.283175254864535e-16 
3.722643377577105e-16 
3.69683665516519e-16 
1.5165143757355156e-16 
1.20852313758887e-16 
-1.8130551269896315e-15 
4.058168489822124e-17 
-9.207764417420762e-16 
4.917673507972778e-16 
3.049861261146505e-16 
9.134790488554447e-17 
-2.265074669916153e-16 
5.0131317966105914e-17 
-1.0452678359280745e-15 
9.227015302232596e-16 
-7.650316055042017e-16 
-2.8888540987813737e-17 
1.8544117624168267e-16 
-1.2477983181645815e-16 
-4.2625720700297256e-17 
4.659446254354047e-16 
-6.584693027904825e-16 
-7.10938029933155e-17 
-1.335394898834985e-16 
-5.704082986659034e-17 
-5.25746387796922e-17 
-2.721588402504979e-17 
1.7578118876730825e-17 
2.1246936356964683e-17 
2.2117334746136803e-17 
7.884013087650275e-18 
2.9787915085770618e-18 
-1.7173789547189591e-19 
8.517698904848199e-19 
-7.43034031875226e-19 
3.0973486726080757e-19 
8.43422402230255e-19 
-9.070215947414636e-19 
-7.590686266024457e-20 
3.4894857184665585e-19 
-4.653965125540974e-19 
-1.47482880243865e-18 
-2.1313424528681945e-18 
-1.2937932668866715e-18 
-6.042373397188461e-20 
-1.517572736190508e-19 
-1.7992206422235327e-18 
-2.394785532141065e-19 
5.69955459470187e-20 
-2.673515465599808e-18 
1.073170941994847e-18 
-3.619805887135509e-18 
2.3871501130206354e-18 
-3.3415650924199655e-18 
6.371628519442134e-19 
-3.9886102620800612e-19 
7.223306935493125e-19 
-1.2292603163300273e-18 
1.6539111324837026e-18 
-6.811870215473871e-19 
4.2757521778863726e-18 
-7.72796331730954e-18 
3.4043219757325373e-20 
9.276641136164316e-20 
-6.298059738093285e-18 
7.883099877048139e-18 
-7.18382498840201e-18 
8.826713472768338e-18 
3.2942861451966733e-18 
-3.469731079488783e-18 
-2.2164485799432855e-17 
-1.7638816584478015e-17 
-8.218540187186159e-18 
4.1250717678977433e-19 
-6.903270196435221e-18 
2.6172275632601017e-18 
-3.2538865870615346e-18 
1.3421063755378417e-17 
-2.871217106377727e-19 
2.3080437652887904e-17 
1.3121378931143519e-17 
2.343053302045965e-18 
4.956834232428091e-18 
-2.556033552958346e-18 
4.237355795077862e-17 
-5.703580619251164e-17 
4.748994473650447e-17 
-4.380761824384264e-18 
-1.229666847859286e-17 
2.241690045277191e-17 
-4.8615998176007495e-17 
3.7116161384433596e-17 
-1.1561032569034279e-17 
1.8509042195996492e-17 
-2.0823230819017396e-17 
7.35196201153595e-18 
7.010290339496539e-18 
-2.3323529327224274e-17 
4.579624322437601e-17 
-5.250705624551625e-17 
-1.1999830698344157e-17 
-1.286335637964472e-17 
-2.288698545387593e-17 
-1.3087757578231457e-18 
-4.4867422711556694e-18 
-9.7219551428283e-17 
7.429294222895782e-19 
1.9223915815323693e-17 
-7.138161264904057e-18 
-8.993030802784635e-17 
-9.010221192121576e-17 
-4.5774663154067017e-17 
6.536954471149716e-17 
2.5654773513371973e-18 
3.278625164286696e-17 
2.0394922640135263e-6 
-0.00010954465718967173 
-0.00010671298846408285 
0.05449875535161867 
-2.138372139646195e-5 
-8.872981727208261e-7 
-0.00012717462965597842 
0.13761858367630664 
-1.5927508621460953e-6 
-0.0005902246545202947 
4.097984366068443e-6 
-8.5441145389579e-6 
-0.00010894856141460063 
-0.0001853824495060731 
-0.00020979379168689077 
0.13241118231585752 
3.5234057538218723e-6 
-9.833546137100984e-5 
2.6845682279948865e-5 
-2.4543885498342208e-6 
-5.125834594920534e-5 
-0.00010064920003677715 
0.04134459404744934 
-5.078824514537048e-6 
-3.6687228853057804e-5 
0.00013941308843844162 
0.005047140704330372 
0.00036410749953907066 
-3.913511510939995e-5 
6.539969574555317e-5 
0.0008952705184363653 
-2.973630663508683e-6 
6.909182023545888e-5 
0.00022204539796260935 
1.7485628133598177e-6 
1.0871641791415226e-5 
0.00016228109249735807 
0.00073783522094674 
4.012549390121142e-5 
1.9439195192871106e-6 
3.389598733583796e-5 
-2.4046967693554943e-5 
3.69943906325428e-5 
0.672844128139585 
-6.139013049002254e-7 
4.132124516720048e-5 
0.0030991891236772195 
0.0007081991498239258 
1.2679814746501995e-6 
-9.561058814058662e-5 
0.0006442003247903982 
-2.0089201627067406e-6 
-1.098295250693816e-5 
0.0005242778116600713 
0.004528033698781816 
-1.6973919292684778e-6 
-4.6112337756744856e-5 
0.0011067853161004385 
1.8173229395133504e-5 
-1.956965812123358e-5 
-1.97159519275784e-5 
-9.897646805104781e-5 
0.0004197886756077967 
0.03193824878351417 
5.212164928365963e-7 
-6.303833608954365e-5 
-3.259369956817254e-5 
0.0026063860280760693 
8.878365734402379e-6 
1.3380926423683419e-5 
-1.2667451848835836e-5 
-0.0008112163601027594 
0.08472069051440842 
0.000992161308833147 
1.8220720753009386e-6 
-6.888701703543221e-6 
-5.284496280974182e-5 
0.0001964129993301498 
2.2367816398232957e-5 
1.9408781811475327e-6 
2.059435113962562e-5 
3.3064687917894334e-5 
-0.00010192251321727306 
0.22569964775374884 
-4.3889611406540754e-7 
0.0001289246580396297 
0.0015352544562398365 
-8.512457703599369e-7 
1.682159904350988e-5 
0.0002857949811661174 
8.322578657492234e-6 
2.704031685068425e-6 
-4.580179636928665e-5 
1.6974736851335082e-5 
0.00031363825413693446 
0.1761084694440437 
-3.976642930192366e-6 
-0.0002558898887969315 
7.875212958859279e-6 
0.00012507285975868433 
0.0024092591285066354 
-2.1795791679481475e-7 
-0.00017180594123858103 
1.4737578976180063e-6 
8.700983331912258e-6 
0.00013115692891419367 
0.005166701399958444 
6.6279439119795185e-6 
0.0019033229156053373 
-0.0005507203653833427 
0.00020494998207173386 
-1.4835833300201817e-5 
0.00011203250703785296 
-4.1899524477369344e-5 
-0.00011102830490291574 
0.020816510294284805 
-2.0629967835519042e-5 
0.0006767550047998292 
-0.00010798679335030176 
0.001055221829462764 
0.14491207717439256 
-7.488080169259297e-6 
0.00023480053433214726 
0.0016101216664453925 
1.8910295282351977e-6 
1.2260375149975249e-5 
0.01822942543163832 
-3.294073238454597e-5 
8.761420029595318e-6 
-7.175989119206988e-5 
0.026196483793359922 
7.236297823668471e-7 
-0.00010944376046832007 
0.0010317162820562937 
-4.674102119248904e-6 
-3.9117764863956837e-5 
2.6967613928837263e-5 
0.0016552364869767096 
1.895067135499233e-5 
-3.438302270886818e-8 
-7.70500500074777e-6 
0.00032925095804001576 
0.3485697181753783 
-4.52590242124447e-6 
-2.515735273587265e-5 
-1.5720022953769723e-5 
-0.00013338770943068775 
0.00011432984835585456 
2.5916051496647335e-6 
-1.2160528358473798e-5 
0.00028186366648722525 
-3.52400555171135e-7 
1.9586730416419632e-6 
0.00010943751997094333 
0.0007940089356655885 
8.970917148848182e-7 
9.845870301144936e-6 
0.0007728270293888183 
4.9436285207101045e-5 
3.6518191432921044e-6 
1.040377430735858e-5 
9.336385067518446e-6 
0.0010016913653988564 
-1.2751257502708555e-5 
-9.531909789792872e-6 
0.00010535885480647387 
-0.000421559485202516 
2.696566012556529e-6 
-2.9824662963662003e-5 
-7.005791955484703e-5 
0.00017547821227814901 
0.005104381416376902 
1.7734834720786923e-6 
0.00011914067460614649 
0.053050413660269705 
-6.741108010076308e-6 
1.861705145262846e-5 
0.0002719961642928901 
0.5069924270763373 
-5.52326795849446e-8 
3.653672016098258e-5 
6.335437316376381e-5 
0.4693860142893955 
9.286403105539415e-7 
0.0005356011207243101 
-6.02267117393904e-8 
8.50715361002893e-6 
-5.5453288482451387e-5 
-2.8794511834501264e-5 
0.0006389431015662593 
-8.157303442783641e-9 
8.332353367172815e-7 
-0.00027037370956473533 
0.27132673947844743 
-1.3936595153981117e-6 
-2.087058284358697e-6 
-0.0001230493574540757 
-0.003419406868873882 
0.00877666023477032 
-1.211999954605334e-5 
3.157774182814347e-5 
0.0016394994693515368 
3.71086355907739e-7 
1.2356400159746804e-7 
-0.0008036930359313276 
0.014172140884266847 
1.2990507455855547e-7 
9.668044999677982e-5 
-6.6435804497364095e-6 
-0.00016081761912405682 
9.18865372641148e-5 
5.907135586140002e-6 
-0.00048100534427920265 
6.600148667697855e-6 
-9.610581493192837e-8 
3.738802131065822e-5 
-5.704579730004433e-5 
3.3182586789312495e-5 
-0.0020956068692217795 
0.01746919585686834 
-3.38829961975442e-6 
-0.0001363459437403395 
-0.0007333086517809805 
-3.37830427692653e-5 
-4.241878751461321e-6 
0.000215579813061858 
0.006464080717460767 
-3.385890146944792e-6 
5.5229255084444076e-5 
-0.0001084479849011012 
-0.00023779187068117711 
-3.8043500137844105e-5 
-3.7374103734682206e-5 
0.00015414984902455454 
-3.16426395918132e-5 
-1.1511522892017327e-6 
-0.0001115981388712111 
1.8158862192785255e-6 
0.07313409850618775 
4.474014135901171e-7 
-4.350447442515874e-5 
0.00028564656821526154 
0.3126285513647073 
8.825817188749464e-7 
0.00015358266888246158 
-0.0002751080351174361 
-3.893191610693258e-8 
5.961739613467026e-6 
-9.608711515798451e-7 
-8.385161934836656e-5 
0.00033324405304651435 
1.6675191632780622e-7 
0.0009249000888156425 
-1.4970942892104672e-5 
8.478885898818898e-6 
-7.159926159576227e-6 
-2.6254221599403012e-5 
-4.378989880045022e-5 
0.0010152306392894664 
5.623254886710517e-8 
-4.935161754934329e-5 
7.656969438520476e-7 
-2.329094368361145e-5 
-9.900378759810563e-5 
0.000614090145933294 
-0.00012502307248231468 
6.237628288578001e-5 
0.00013143573501434822 
5.057156361929561e-7 
-5.57269109834778e-6 
0.0002650502294356366 
-6.59743360676592e-5 
0.008780836340826685 
-1.93574579991886e-5 
1.1770191834579942e-6 
0.00010366779519021365 
0.0011071287674731354 
1.3118071807429416e-6 
1.398547824997293e-5 
3.409196079429466e-5 
0.00010672102355636394 
0.0008375627592422892 
0.0036908869962172072 
-1.4285124007518575e-5 
-4.993690623577391e-7 
0.00487630072481085 
-9.641530068487137e-5 
3.992263775768931e-5 
0.00019398264160902254 
3.236804055760833e-6 
7.414876949841026e-6 
-7.101622983225769e-5 
1.029862810793851e-6 
1.3831729945461224e-5 
8.415928763226167e-5 
0.0001055069609380053 
-6.345533981075673e-6 
-6.551633033813364e-6 
-2.0633146569278718e-5 
0.016195122940961433 
3.6301215560008805e-6 
-4.679338841690048e-5 
-0.0001548921757994937 
0.45517931300128106 
-5.4333751984932455e-6 
2.7991321826798986e-6 
0.0006234742758192825 
-0.0002379365190713326 
-0.0001136506159986446 
0.06576556895527833 
-1.2564112785938487e-5 
-6.677090935263266e-5 
3.4605137949829936e-5 
-1.2612557812297003e-5 
0.16066693050571831 
-4.033330371127121e-6 
-3.9788980529718013e-5 
-0.0004282471391257608 
9.386788476676396e-5 
9.709089812288079e-6 
0.0007067770536877438 
-0.0005062538494029611 
0.0001776776210291384 
0.003536222453364941 
3.756222818427731e-6 
-1.6546062031915815e-5 
8.356707456445064e-5 
0.000602523133739342 
1.5680536014074425e-7 
-8.397339291576901e-6 
-9.200105960275396e-6 
-2.927405524263998e-5 
-4.394947143467491e-6 
0.005023290609485983 
-1.6428267904066615e-6 
3.795129475963373e-5 
-0.00045631462444738294 
2.854446200064545e-6 
1.6293404822022202e-5 
0.00020780877989493216 
0.04696069616260803 
1.847586444473549e-8 
5.767194431843221e-5 
-2.7174279074684465e-5 
0.0006167830835367462 
0.06023923810854902 
-2.1085222864391336e-6 
2.5821318551010483e-5 
2.592315104001577e-6 
0.0010770414962869848 
0.10387604853797121 
0.0006280181283570915 
-3.0423077036522736e-5 
-2.1029689640300054e-6 
-6.584586654973565e-6 
0.000124840672723575 
-0.0011103441647455131 
1.8029136684774955e-6 
-1.683086568204736e-5 
-6.456593468375193e-6 
-0.00030710639524472337 
2.459718567796401e-7 
-1.2617059964366285e-5 
1.7430371873098736e-6 
0.00010647424604026252 
0.0003582541141061764 
2.9914703931447665e-6 
0.0004232167186244444 
-3.3703748421901306e-7 
2.5749311685241797e-6 
5.145064753996992e-5 
8.980391697630253e-5 
-3.894846452098535e-7 
2.9486078687673684e-6 
4.4404144398926414e-5 
-5.464068779862199e-5 
-5.455490531538516e-5 
0.020771708553323314 
-1.8913869807815863e-6 
6.573423656952228e-5 
0.22817947806042455 
-1.2854128885927765e-6 
0.009081345539798674 
1.8520778292034453e-5 
4.307883187723438e-5 
0.00011904647093586593 
0.20276120046324791 
1.6212776107554769e-6 
3.2697583223316534e-6 
-0.00010549566151135373 
0.00025385575817525157 
2.3351813928359495e-6 
0.0005617500935268966 
-0.00026554556805248554 
0.0021873411828215385 
0.07615261072006502 
-5.506828346868936e-6 
-0.00012041072782199196 
1.1823477904940955e-6 
-2.226712439412501e-5 
-0.00025863908000097336 
0.00023669473656136167 
0.00014286487446989028 
0.0008164980549037732 
0.5397247482990616 
-8.334271547992998e-6 
0.00035040513986330505 
0.0004994676849288545 
-2.9373215127853125e-6 
1.9490303401802473e-5 
0.0014035730084822964 
0.0015503657823337583 
-2.1222599564120297e-5 
-0.00019420905591302395 
0.03627746047932342 
-1.2733151723530823e-5 
0.0005972350990153016 
0.0020669503472250383 
-8.022564649077073e-7 
5.662732868394462e-5 
-1.6600151266968844e-5 
-2.1587536631417354e-5 
0.000354008982712791 
-9.90155432881958e-7 
-3.8567943483683085e-5 
-0.00043577310969575457 
0.0029616803772141475 
-6.429148425827993e-6 
3.899537585444041e-5 
0.002265126619132175 
0.0003737832914920816 
-4.801545269204938e-5 
-0.000601563055106842 
-4.288237557645702e-6 
1.7915103796405485e-6 
-6.513744242768827e-5 
-0.00019524414699013923 
0.0002672924319860979 
-6.451858013418104e-7 
-2.7365617025106095e-5 
-2.7141613726099573e-5 
0.0005835881478589161 
-3.0486978100710026e-5 
-1.159431100147417e-5 
-2.9513586034203953e-5 
-0.0006739741304091226 
-2.3984384252131967e-5 
-2.3617345611000135e-6 
0.10011616989300359 
2.066045374148218e-5 
-3.257084812946169e-5 
0.0001779123234167744 
-1.5277825617520447e-6 
-1.5070346801571358e-6 
1.4257725657922746e-5 
0.00013971286884435083 
7.114131517246518e-8 
7.254041572861335e-6 
-3.94469673574516e-5 
-0.0006179303269898222 
0.36529764348744137 
3.340315102868275e-6 
-4.7094509436259474e-5 
0.03049596485423069 
-5.553647338612137e-6 
3.0922041901886434e-5 
0.00029577184036080575 
8.496583313010752e-6 
0.00014011882970559018 
-6.589446688638829e-7 
-1.9782816919628635e-5 
-0.00018948189744809733 
5.328304525282721e-5 
0.0005181825180426351 
-2.848214332952909e-7 
-5.3845373160345735e-6 
0.0008332530379253825 
0.18595128233571429 
2.710540442587909e-6 
-3.604526903700456e-5 
0.00015489354899448732 
-0.0005460073528841494 
-5.186985615750181e-7 
-4.610303997778457e-6 
-0.00016898629757988514 
0.00010189365416203202 
1.4470380275683064e-6 
-0.001678885198206647 
0.0037837038781598567 
0.0005339209932488135 
0.04695344325875918 
0.014096791762292213 
0.036560419785397834 
5.41636560228645e-6 
1.0056533119940294e-5 
-6.999747974106796e-6 
7.906974778957284e-5 
5.858018224439876e-5 
-0.00012176969753731768 
0.04397943710600497 
0.02181899836168863 
0.021650304579577173 
-3.130835350562767e-5 
1.0332918989591684e-5 
3.4576713952064114e-6 
8.906913494546113e-5 
-0.00010927909529491937 
1.4113099007951633e-5 
-2.596713817092944e-5 
-8.45137756305285e-5 
-6.712937801573258e-6 
1.7051910482146972e-5 
-0.0012587034717820493 
0.0027404473936629486 
0.09931278058929306 
0.031018010743859983 
3.451979668846594e-5 
1.3659376560520823e-5 
0.00015474528934889117 
-0.00012361846411390468 
0.014684438601222564 
-0.00014432103711490538 
2.8627037694752215e-5 
0.0003358243800028106 
0.01094961882531874 
0.004006301771633586 
0.0024477942286088047 
7.978095938255308e-5 
-0.00011421911119895869 
0.00010986577775993381 
9.010139455811049e-5 
3.448515239481215e-5 
-1.055635104614494e-7 
3.888510176241225e-5 
-6.508665681384185e-5 
-0.00023755165119081667 
0.0011166856174695732 
-0.0004993475088412835 
-2.5651737077396075e-7 
1.3208686884247907e-6 
2.6566859967956503e-7 
-1.0032785906240158e-5 
2.1544285614055683e-5 
-9.99272113909565e-6 
8.373315645711563e-5 
2.161623910187959e-5 
-0.00032882099938775675 
6.091469025748493e-5 
1.2740086565154603e-6 
-6.165269442412698e-7 
1.3732114553835342e-5 
4.727202154795215e-6 
-5.092716942237622e-5 
8.340861027271866e-5 
0.00012895985803722818 
0.0001994042818140632 
-1.2593674952145474e-6 
-2.1599803435372127e-7 
-9.18570831316524e-6 
1.3846872180795467e-5 
1.736494261917457e-5 
-7.357123969316448e-7 
-1.5020796812240406e-5 
0.00013614446980085 
-2.1688132785481493e-5 
-3.475877112802159e-5 
0.06137694271274681 
0.035588942500221515 
0.07211609924497446 
3.1699484770191883e-7 
-3.4359238675724756e-7 
4.705471418129116e-7 
-2.1873335179879063e-5 
0.00030877693854407945 
-0.0007870645006594776 
8.942016687260192e-8 
3.817511897886933e-8 
1.69917570981644e-7 
1.557208833239768e-5 
-2.390987839439761e-5 
-2.683095403809985e-6 
7.421316099445032e-5 
-5.968847096389045e-5 
-2.7691844010150116e-5 
-0.00018481160702766512 
3.544808157652841e-5 
-0.0002069444097399337 
-9.53492218624637e-6 
1.6401621800398063e-7 
-1.2237628106688199e-5 
-1.9279900289345355e-6 
4.277448083292694e-6 
-3.257998032254941e-6 
-1.8417118056806698e-5 
3.840158035508591e-5 
4.477017339035315e-6 
-4.201586041615679e-5 
-0.00038777705299684943 
-7.040918609237634e-7 
-2.527245818458159e-5 
-5.819145509344271e-5 
-5.075758882535064e-6 
3.0675258125663905e-6 
5.586457572631858e-5 
-0.0005051945181038392 
0.0005925319948174525 
7.994930502462347e-5 
2.7505979652626804e-5 
2.4726186696344443e-6 
-2.7053451440901718e-6 
-4.154348656527184e-5 
6.664798132249263e-6 
-8.596619956192979e-5 
-0.00011589167218753908 
1.30779283277191e-5 
-3.4448827597526025e-5 
-3.7883240681583173e-5 
-0.00034279022180810545 
0.00026820281020236656 
-4.090620886292752e-6 
-2.2588245340730165e-6 
-4.033571184453354e-7 
-8.942871670587297e-6 
4.984226255284043e-5 
-4.354821635526512e-5 
0.00013235951964463488 
-0.00019350662389783574 
-8.581108968979067e-9 
2.311400641131297e-7 
1.3478609475262827e-5 
-8.510282714393784e-6 
1.2662987148316343e-5 
1.3677805324614023e-5 
4.4602506887940215e-5 
-3.0425714977073468e-5 
0.01287923225874194 
0.010906888038536153 
3.675616835266865e-6 
-1.7258498190047642e-6 
3.7853052272529206e-5 
7.152460718920446e-6 
-2.8615941046914174e-5 
0.0017176779145931646 
-0.0005452023390092365 
-0.0021082388328549115 
-3.532150576619079e-5 
3.506600793526647e-5 
0.00017180891664467048 
4.859040677293572e-6 
4.686074627699471e-6 
-7.217080870317365e-6 
0.0005551371255341376 
0.0013088806729614636 
0.00030455500530064195 
-0.00011663270470607707 
-8.817504987285387e-6 
0.000694024840978008 
2.592381019012062e-7 
1.271341321626162e-7 
3.216966714457122e-5 
-1.163073795311903e-6 
-0.00021593594909697316 
0.0001772621855833794 
-0.000175172625211693 
0.0009687425000405322 
0.0011528694218682913 
0.0005182494563465931 
3.0472483187873565e-6 
3.9282094297087427e-7 
-4.248679154809621e-6 
-4.302720336055243e-5 
-5.659267404157681e-5 
9.854371119551591e-5 
0.0004061375712573246 
-0.00037799912544784884 
-0.00012382052937393744 
-4.306751248002599e-6 
4.690305912211128e-6 
-2.1014365769490657e-6 
9.862606730476693e-6 
-4.652602506473418e-6 
-3.2881187757330667e-6 
3.5147959543810945e-5 
-5.281718991115146e-5 
8.825459953382276e-5 
6.9340975318399686e-6 
-3.485694967394611e-5 
0.00028143032177580174 
-0.0009084091442623601 
-1.592920101179599e-5 
2.351006216654576e-5 
-1.609961727202239e-7 
-6.336157021101695e-6 
-0.0001389198525480738 
2.4666085194140533e-6 
-0.00011196446086444237 
5.324555392613818e-5 
0.00016531467428542983 
-5.21518445191397e-5 
-2.7134282616751985e-7 
9.750217092693889e-8 
-6.607619470565563e-6 