# vtk DataFile Version 3.0 
Unstructured Grid 
ASCII 
DATASET UNSTRUCTURED_GRID
POINTS 2173 float 
-0.5 -0.5 0  
0.5 -0.5 0  
0.5 0.5 0  
-0.5 0.5 0  
-0.475 -0.5 0  
-0.45 -0.5 0  
-0.425 -0.5 0  
-0.4 -0.5 0  
-0.375 -0.5 0  
-0.35 -0.5 0  
-0.325 -0.5 0  
-0.3 -0.5 0  
-0.275 -0.5 0  
-0.25 -0.5 0  
-0.225 -0.5 0  
-0.2 -0.5 0  
-0.175 -0.5 0  
-0.15 -0.5 0  
-0.125 -0.5 0  
-0.1 -0.5 0  
-0.075 -0.5 0  
-0.05 -0.5 0  
-0.025 -0.5 0  
-1.3761214e-12 -0.5 0  
0.025 -0.5 0  
0.05 -0.5 0  
0.075 -0.5 0  
0.1 -0.5 0  
0.125 -0.5 0  
0.15 -0.5 0  
0.175 -0.5 0  
0.2 -0.5 0  
0.225 -0.5 0  
0.25 -0.5 0  
0.275 -0.5 0  
0.3 -0.5 0  
0.325 -0.5 0  
0.35 -0.5 0  
0.375 -0.5 0  
0.4 -0.5 0  
0.425 -0.5 0  
0.45 -0.5 0  
0.475 -0.5 0  
0.5 -0.475 0  
0.5 -0.45 0  
0.5 -0.425 0  
0.5 -0.4 0  
0.5 -0.375 0  
0.5 -0.35 0  
0.5 -0.325 0  
0.5 -0.3 0  
0.5 -0.275 0  
0.5 -0.25 0  
0.5 -0.225 0  
0.5 -0.2 0  
0.5 -0.175 0  
0.5 -0.15 0  
0.5 -0.125 0  
0.5 -0.1 0  
0.5 -0.075 0  
0.5 -0.05 0  
0.5 -0.025 0  
0.5 -1.3761214e-12 0  
0.5 0.025 0  
0.5 0.05 0  
0.5 0.075 0  
0.5 0.1 0  
0.5 0.125 0  
0.5 0.15 0  
0.5 0.175 0  
0.5 0.2 0  
0.5 0.225 0  
0.5 0.25 0  
0.5 0.275 0  
0.5 0.3 0  
0.5 0.325 0  
0.5 0.35 0  
0.5 0.375 0  
0.5 0.4 0  
0.5 0.425 0  
0.5 0.45 0  
0.5 0.475 0  
0.475 0.5 0  
0.45 0.5 0  
0.425 0.5 0  
0.4 0.5 0  
0.375 0.5 0  
0.35 0.5 0  
0.325 0.5 0  
0.3 0.5 0  
0.275 0.5 0  
0.25 0.5 0  
0.225 0.5 0  
0.2 0.5 0  
0.175 0.5 0  
0.15 0.5 0  
0.125 0.5 0  
0.1 0.5 0  
0.075 0.5 0  
0.05 0.5 0  
0.025 0.5 0  
1.3761214e-12 0.5 0  
-0.025 0.5 0  
-0.05 0.5 0  
-0.075 0.5 0  
-0.1 0.5 0  
-0.125 0.5 0  
-0.15 0.5 0  
-0.175 0.5 0  
-0.2 0.5 0  
-0.225 0.5 0  
-0.25 0.5 0  
-0.275 0.5 0  
-0.3 0.5 0  
-0.325 0.5 0  
-0.35 0.5 0  
-0.375 0.5 0  
-0.4 0.5 0  
-0.425 0.5 0  
-0.45 0.5 0  
-0.475 0.5 0  
-0.5 0.475 0  
-0.5 0.45 0  
-0.5 0.425 0  
-0.5 0.4 0  
-0.5 0.375 0  
-0.5 0.35 0  
-0.5 0.325 0  
-0.5 0.3 0  
-0.5 0.275 0  
-0.5 0.25 0  
-0.5 0.225 0  
-0.5 0.2 0  
-0.5 0.175 0  
-0.5 0.15 0  
-0.5 0.125 0  
-0.5 0.1 0  
-0.5 0.075 0  
-0.5 0.05 0  
-0.5 0.025 0  
-0.5 1.3761214e-12 0  
-0.5 -0.025 0  
-0.5 -0.05 0  
-0.5 -0.075 0  
-0.5 -0.1 0  
-0.5 -0.125 0  
-0.5 -0.15 0  
-0.5 -0.175 0  
-0.5 -0.2 0  
-0.5 -0.225 0  
-0.5 -0.25 0  
-0.5 -0.275 0  
-0.5 -0.3 0  
-0.5 -0.325 0  
-0.5 -0.35 0  
-0.5 -0.375 0  
-0.5 -0.4 0  
-0.5 -0.425 0  
-0.5 -0.45 0  
-0.5 -0.475 0  
-0.002115384 -0.00023065208 0  
-0.20714286 -0.20714286 0  
0.20714286 -0.20714286 0  
0.20714286 0.20714286 0  
-0.20714286 0.20714286 0  
-0.28155318 -0.0017231192 0  
0.0017231192 -0.28155318 0  
0.28155318 0.0017231192 0  
-0.0017231192 0.28155318 0  
0.3319978 -0.33098683 0  
0.33098683 0.3319978 0  
-0.3319978 0.33098683 0  
-0.33098683 -0.3319978 0  
-0.14015679 -0.06698606 0  
0.06698606 -0.14015679 0  
0.14015679 0.06698606 0  
-0.06698606 0.14015679 0  
-0.1387125 -0.34573975 0  
0.34573975 -0.1387125 0  
0.1387125 0.34573975 0  
-0.34573975 0.1387125 0  
0.14046866 -0.34602854 0  
0.34602854 0.14046866 0  
-0.14046866 0.34602854 0  
-0.34602854 -0.14046866 0  
-0.05869875 -0.16617337 0  
0.18217777 -0.061504476 0  
0.062312964 0.18362015 0  
-0.18362015 0.062312964 0  
-0.034321424 -0.38563195 0  
0.38563195 -0.034321424 0  
0.034321424 0.38563195 0  
-0.38563195 0.034321424 0  
0.39586002 -0.2428538 0  
0.2428538 0.39586002 0  
-0.39586002 0.2428538 0  
-0.2428538 -0.39586002 0  
0.23688246 -0.38952246 0  
0.38952246 0.23688246 0  
-0.23688246 0.38952246 0  
-0.38952246 -0.23688246 0  
-0.24287231 -0.09948847 0  
0.09948847 -0.24287231 0  
0.24287231 0.09948847 0  
-0.09948847 0.24287231 0  
-0.11560815 -0.24300627 0  
0.24300627 -0.11560815 0  
0.11560815 0.24300627 0  
-0.24300627 0.11560815 0  
-0.40192315 -0.4008276 0  
0.4008276 -0.40192315 0  
0.40192315 0.4008276 0  
-0.4008276 0.40192315 0  
0.06409326 -0.40289903 0  
0.40289903 0.06409326 0  
-0.06409326 0.40289903 0  
-0.40289903 -0.06409326 0  
0.2962961 -0.23982804 0  
0.23982804 0.2962961 0  
-0.2962961 0.23982804 0  
-0.23982804 -0.2962961 0  
-0.28087237 -0.21196799 0  
0.21196799 -0.28087237 0  
0.28087237 0.21196799 0  
-0.21196799 0.28087237 0  
-0.0901279 0.007867504 0  
-0.05002927 -0.07494272 0  
0.0873353 -0.009871756 0  
0.0071518295 0.09216282 0  
-0.14120433 -0.1484696 0  
-0.14581114 0.13960092 0  
0.1458264 -0.14505939 0  
0.13960092 0.14581114 0  
0.41838804 -0.3182741 0  
0.3182741 0.41838804 0  
-0.41838804 0.3182741 0  
-0.3182741 -0.41838804 0  
0.32118136 -0.41712493 0  
0.41712493 0.32118136 0  
-0.32118136 0.41712493 0  
-0.41712493 -0.32118136 0  
-0.19707234 -0.014843048 0  
0.018050108 -0.20183705 0  
0.19707234 0.014843048 0  
-0.014843048 0.19707234 0  
-0.10938372 -0.41847488 0  
0.41847488 -0.10938372 0  
0.10938372 0.41847488 0  
-0.41847488 0.10938372 0  
0.15773043 -0.4267032 0  
0.4267032 0.15773043 0  
-0.15773043 0.4267032 0  
-0.4267032 -0.15773043 0  
-0.3204562 -0.07174808 0  
0.07174808 -0.3204562 0  
0.3204562 0.07174808 0  
-0.07174808 0.3204562 0  
0.02801032 -0.07269879 0  
-0.31817523 0.069836795 0  
-0.069836795 -0.31817523 0  
0.31817523 -0.069836795 0  
0.069836795 0.31817523 0  
0.43106207 -0.17757268 0  
0.17757268 0.43106207 0  
-0.43106207 0.17757268 0  
-0.17757268 -0.43106207 0  
0.0703783 0.071201205 0  
-0.051593844 0.064346604 0  
0.099701226 -0.08333426 0  
0.2863281 -0.17248559 0  
0.17248559 0.2863281 0  
-0.2863281 0.17248559 0  
-0.17248559 -0.2863281 0  
-0.2341888 0.04979648 0  
-0.049194112 -0.231281 0  
0.23358595 -0.04946041 0  
0.04979648 0.2341888 0  
-0.009939441 -0.13691185 0  
-0.26560438 -0.17864102 0  
0.17864102 -0.26560438 0  
0.26560438 0.17864102 0  
-0.17864102 0.26560438 0  
0.013302229 -0.43510666 0  
0.43510666 0.013302229 0  
-0.013302229 0.43510666 0  
-0.43510666 -0.013302229 0  
0.09432827 0.114700764 0  
-0.11539384 0.093188405 0  
-0.3413634 -0.005100272 0  
0.005100272 -0.3413634 0  
0.3413634 0.005100272 0  
-0.005100272 0.3413634 0  
-0.19817708 -0.3508856 0  
0.3508856 -0.19817708 0  
0.19817708 0.3508856 0  
-0.3508856 0.19817708 0  
-0.34100306 -0.27216324 0  
0.27216324 -0.34100306 0  
0.34100306 0.27216324 0  
-0.27216324 0.34100306 0  
-0.20269383 -0.14403741 0  
0.14393912 -0.2028372 0  
0.2026342 0.14393856 0  
-0.14393856 0.2026342 0  
-0.1030633 -0.10524017 0  
-0.4394695 -0.104853734 0  
0.104853734 -0.4394695 0  
0.4394695 0.104853734 0  
-0.104853734 0.4394695 0  
-0.44156647 -0.44156647 0  
0.44156647 -0.44156647 0  
0.44156647 0.44156647 0  
-0.44156647 0.44156647 0  
-0.2683254 -0.44465622 0  
0.44465622 -0.2683254 0  
0.2683254 0.44465622 0  
-0.44465622 0.2683254 0  
0.2654342 -0.4435478 0  
0.4435478 0.2654342 0  
-0.2654342 0.4435478 0  
-0.4435478 -0.2654342 0  
-0.27373606 -0.34534052 0  
0.34534052 -0.27373606 0  
0.27373606 0.34534052 0  
-0.34534052 0.27373606 0  
-0.05307205 -0.4481981 0  
0.4481981 -0.05307205 0  
0.05307205 0.4481981 0  
-0.4481981 0.05307205 0  
-0.35614902 -0.19390328 0  
0.19390328 -0.35614902 0  
0.35614902 0.19390328 0  
-0.19390328 0.35614902 0  
-0.14022674 -0.012452113 0  
0.14171903 0.011271359 0  
-0.01125192 0.14089845 0  
-0.19556868 -0.06932378 0  
0.070511825 -0.19668652 0  
0.19556868 0.06932378 0  
-0.06932378 0.19556868 0  
-0.24951252 -0.039742906 0  
0.04037078 -0.2503529 0  
0.24951252 0.039742906 0  
-0.039742906 0.24951252 0  
0.44100407 -0.36164257 0  
0.36164257 0.44100407 0  
-0.44100407 0.36164257 0  
-0.36164257 -0.44100407 0  
-0.4451273 -0.36589316 0  
0.36589316 -0.4451273 0  
0.4451273 0.36589316 0  
-0.36589316 0.4451273 0  
0.1121834 -0.30242515 0  
0.30242515 0.1121834 0  
-0.1121834 0.30242515 0  
-0.30242515 -0.1121834 0  
-0.115146436 -0.19087775 0  
0.19190264 -0.11309679 0  
0.11520548 0.19263776 0  
-0.19263776 0.11520548 0  
-0.08287991 -0.37025127 0  
0.37025127 -0.08287991 0  
0.08287991 0.37025127 0  
-0.37025127 0.08287991 0  
0.23791528 -0.24381089 0  
0.24381089 0.23791528 0  
-0.23791528 0.24381089 0  
-0.24381089 -0.23791528 0  
-0.44626984 -0.21174923 0  
0.21174923 -0.44626984 0  
0.44626984 0.21174923 0  
-0.21174923 0.44626984 0  
0.35174853 -0.37705234 0  
0.37705234 0.35174853 0  
-0.35174853 0.37705234 0  
-0.37705234 -0.35174853 0  
-0.048605647 -0.023262763 0  
-0.1551113 -0.21381997 0  
0.21381997 -0.1551113 0  
0.1551113 0.21381997 0  
-0.21381997 0.1551113 0  
-0.29403278 -0.30027482 0  
0.30027482 -0.29403278 0  
0.29403278 0.30027482 0  
-0.30027482 0.29403278 0  
0.12173745 -0.390654 0  
0.390654 0.12173745 0  
-0.12173745 0.390654 0  
-0.390654 -0.12173745 0  
-0.12236246 -0.2979882 0  
0.2979882 -0.12236246 0  
0.12236246 0.2979882 0  
-0.2979882 0.12236246 0  
-0.0945969 -0.046371013 0  
0.035276897 -0.027358124 0  
-0.0076714605 0.051946 0  
-0.30809116 -0.17165439 0  
0.17165439 -0.30809116 0  
0.30809116 0.17165439 0  
-0.17165439 0.30809116 0  
-0.16592422 -0.10879113 0  
0.10700909 -0.1687818 0  
0.16864619 0.10664837 0  
-0.10664837 0.16864619 0  
-0.16784625 -0.38069874 0  
0.38069874 -0.16784625 0  
0.16784625 0.38069874 0  
-0.38069874 0.16784625 0  
-0.4563872 -0.05993889 0  
0.05993889 -0.4563872 0  
0.4563872 0.05993889 0  
-0.05993889 0.4563872 0  
0.31103167 -0.37412483 0  
0.37412483 0.31103167 0  
-0.31103167 0.37412483 0  
-0.37412483 -0.31103167 0  
-0.3909646 -0.012754724 0  
0.012754724 -0.3909646 0  
0.3909646 0.012754724 0  
-0.012754724 0.3909646 0  
0.44915667 -0.21679194 0  
0.21679194 0.44915667 0  
-0.44915667 0.21679194 0  
-0.21679194 -0.44915667 0  
0.045831423 0.12033131 0  
-0.12662303 0.045442794 0  
-0.3107799 -0.37355793 0  
0.37355793 -0.3107799 0  
0.3107799 0.37355793 0  
-0.37355793 0.3107799 0  
0.04152367 0.021693805 0  
-0.08040017 -0.2675595 0  
0.26794365 -0.08044455 0  
0.080500565 0.2680441 0  
-0.2680441 0.080500565 0  
-0.13753757 -0.45578164 0  
0.45578164 -0.13753757 0  
0.13753757 0.45578164 0  
-0.45578164 0.13753757 0  
-0.05507968 -0.12135967 0  
0.14172421 -0.09428923 0  
0.2571752 -0.19664502 0  
[...]
POINT_DATA 2173 
SCALARS T float 
LOOKUP_TABLE default 
-9.316215458150278e-18 
-2.392100922177458e-20 
-3.453692594531508e-19 
-3.765274376079139e-18 
2.5120093012735966e-17 
-1.0273787597784561e-16 
-7.224322817908708e-16 
1.3072868631735035e-16 
4.569743954061823e-16 
6.225680298113047e-16 
6.049619045976418e-16 
-1.6001225129811846e-15 
-1.7440553029400316e-16 
-3.3182653567897524e-16 
3.8540959254285754e-16 
6.358635913009086e-16 
4.780509339067193e-16 
8.501800650110138e-17 
2.1638619204362893e-16 
-1.6355809223210417e-15 
1.0410304394904053e-15 
-8.800960542743823e-16 
-7.741308171355162e-16 
1.5568492057357404e-15 
-1.3687694592232904e-15 
9.806651907487648e-16 
2.437912246487789e-16 
-6.352257254179255e-16 
-4.129053065410885e-17 
-1.4508189988578424e-16 
-6.232008312505902e-17 
-7.152481337213067e-17 
-4.710803555937505e-17 
1.5407829658856026e-17 
2.4218488967492397e-17 
3.0227939286133495e-17 
1.33569596713334e-17 
5.391080046678529e-18 
-6.61630454617718e-19 
3.206121751324548e-19 
-2.085996588108931e-18 
8.265080098764231e-20 
6.143589844711183e-19 
-6.314870965809857e-19 
-2.562005409894358e-19 
1.4627427157229865e-18 
-7.014115308616302e-19 
-2.8670460387262116e-19 
2.274661624254504e-19 
-7.193736875566201e-20 
-1.177714400647925e-18 
1.8306650981797524e-18 
-2.8616493791902055e-18 
3.735717584145003e-18 
-1.121375051051186e-18 
-1.6452882800748573e-18 
3.577830148392431e-18 
-6.558046781505299e-18 
6.528509782079198e-18 
-3.6494483273809716e-18 
2.682254714443234e-18 
-1.4133191218920199e-18 
-7.860981607538575e-20 
7.976278184492946e-19 
-1.823019137016876e-18 
3.600587420786513e-18 
1.1697240021447373e-17 
-1.199180812344419e-17 
2.6286609473874037e-18 
-1.0886932447099242e-17 
1.4301971166857887e-18 
-7.371831604806394e-19 
2.021455617225897e-18 
-6.808795890226885e-19 
6.322706849909633e-18 
-6.859864926212304e-19 
-2.379775853658255e-17 
-1.4448292843838127e-17 
-1.1049382895759123e-17 
2.924917642326297e-17 
-7.472520481379734e-18 
-2.1456759510346396e-18 
6.841629431310157e-21 
1.0451060769840434e-17 
-3.724128525492456e-17 
1.992616887278083e-17 
-7.464480645015231e-18 
-2.6392130351838004e-17 
-1.2598625877457082e-17 
5.2878076276133776e-18 
4.007108013968149e-17 
-4.157204046007379e-17 
1.7633041358439517e-17 
-2.890925783062716e-18 
4.7591692461000104e-18 
-1.2352555214135606e-17 
1.446857268976808e-17 
-3.3869810964078714e-17 
3.977085268047708e-17 
-1.1300522144574887e-17 
-4.0519347720246184e-17 
2.292449884723983e-17 
-1.1394572690244794e-17 
1.0462474188150993e-18 
4.116375753187704e-17 
-7.185894457636699e-17 
-5.555871291418251e-18 
-3.298170760324953e-17 
1.3219302814426213e-17 
-4.4582828910623104e-17 
3.129929082885051e-17 
-8.582894161743604e-17 
-1.656301175008221e-16 
-5.248117142373016e-17 
-2.4719050401259923e-17 
-4.53506548843208e-17 
-1.3826224280761455e-16 
-1.44346672631626e-16 
8.03203435076824e-17 
-5.725315810133658e-17 
4.9341470818008314e-18 
-2.1044035851650585e-17 
3.252962704987504e-17 
-2.1518085188006372e-16 
1.3167852298795851e-16 
1.3790906009557164e-16 
1.7597662031610346e-16 
-4.4981164052142693e-17 
-5.102146568462138e-17 
6.179236924815254e-17 
-1.2807117624650317e-16 
4.022970665753179e-16 
3.4831759719577567e-19 
3.0091776505701007e-16 
-4.87569473026824e-17 
9.209991520882663e-17 
-1.5837864687557692e-16 
1.7152628483694092e-16 
1.839272283846936e-16 
-2.9604369436936734e-16 
1.654249728261092e-16 
-1.2940681112847017e-17 
-1.033008956314591e-16 
1.209691585551107e-16 
-1.3167996613319764e-16 
1.3658250507716293e-16 
4.3864075417576684e-16 
-3.523815559630392e-16 
7.890951841615797e-16 
-8.012758514737546e-16 
7.124966864269838e-17 
-3.2531727009818594e-16 
9.912439055643558e-16 
-3.170868468702476e-16 
1.2307846376209207e-15 
9.433918001870046e-17 
-2.9336207507008415e-16 
2.28115494003505e-16 
-8.941672491329359e-17 
-7.897749018509327e-17 
-2.033336617090308e-6 
0.0008367974493731814 
0.08976622618285143 
-2.9927894903403832e-5 
0.00018117543426052996 
-3.104353566372817e-5 
0.0555182714321319 
-8.310670921205657e-7 
-3.801369575976002e-5 
4.222404465345484e-6 
-1.1052698432322087e-5 
-0.0001222467439377641 
-0.00032034774757789294 
0.0002052779867612184 
0.12699977513165386 
-5.4278033095322535e-6 
-1.208637594463833e-5 
-0.00011890557148037554 
-4.411538672852129e-6 
-3.63072057936564e-5 
9.321042056871782e-6 
0.03337260187264796 
-2.368943955856396e-6 
-4.407062544507213e-5 
-0.0006362162797871246 
0.004160986222590406 
0.0005858908285668611 
2.0783813659874405e-5 
-5.6719690003149605e-5 
0.00019918978768769692 
-3.1778031659164586e-6 
6.467383371198028e-5 
-0.00010745341046305322 
1.0761819858950228e-6 
1.2847922053094481e-5 
0.00016066143968768514 
-0.0002972391147977381 
-1.0995990402494273e-5 
3.9346485254765155e-6 
-2.284361547551195e-6 
2.3689109483813742e-5 
0.0008741835294249488 
0.7733480344330261 
-2.074738617111633e-6 
-0.00011865583107841996 
0.0021316025483849423 
0.001145392168686786 
3.605723261390756e-5 
-7.164026827981372e-6 
0.0005258036977530849 
-3.7450264660734486e-6 
-1.4068426024007643e-5 
-0.00012356955752594392 
0.003719798743319887 
-4.382828059826929e-6 
-5.461652208483968e-5 
0.0003634859787769314 
9.408846506610662e-5 
-2.7977842953720684e-5 
0.00017272092198706519 
0.0005944649172634255 
-0.00020556966540549674 
0.041438679248740215 
-4.634839576049449e-6 
-2.2544982221949604e-5 
0.00023263019697096038 
0.00038467330192288473 
7.472280937807187e-6 
-1.08944909022338e-5 
-0.0019354840858202185 
2.7593383791870448e-5 
0.14758298662925248 
-1.0425677687200718e-5 
1.6427222934188384e-6 
-1.0248020427571016e-5 
-3.428698227889423e-5 
0.00031081188974311987 
3.42672178521568e-5 
2.2810104798205346e-6 
-3.7403261735874396e-5 
0.0006604578580927149 
0.00018540780233527573 
0.16450809008045458 
-1.9038005977632957e-6 
9.264391843004081e-5 
0.002108369341956986 
6.454980366459364e-7 
3.957144418567714e-6 
-7.465148970401067e-5 
-2.6090950930684826e-6 
-3.751625521451677e-7 
-3.3666974582523535e-5 
-1.7942416543570946e-5 
0.00042754059114228347 
0.10771381980585881 
-4.961656240877301e-6 
3.960203262720852e-5 
0.001755522698433511 
8.0213911811948e-5 
0.0014058217783663527 
-3.4198126802714356e-6 
3.7369605427455674e-5 
1.166346918412212e-7 
-2.6806722816648266e-6 
5.329987965155708e-5 
-0.0004791748404386022 
-2.0431120577672028e-5 
-9.73592166685173e-5 
0.011225748610532911 
0.0004522064750891126 
-1.018121902370999e-5 
4.4444814595084105e-5 
-0.001582456643349652 
0.00016694889950281012 
0.00645977986977261 
-7.77067184219426e-6 
2.3444420902965087e-5 
0.011611871855884847 
0.0005523918658391801 
0.2016326459812274 
-2.106044666553618e-5 
0.00010761983054972768 
0.0017326291961545306 
4.495513413158107e-6 
-3.387208215085462e-5 
5.0711558638282974e-5 
-2.2927909537096336e-6 
-1.985380186931427e-5 
-0.00012405492911203033 
0.005418100636514149 
-7.747113406984756e-7 
2.7107672027063883e-5 
0.0020995781481167332 
-4.806547905650152e-6 
-3.783578041056995e-5 
-3.9795373528232665e-5 
0.0003016180298399949 
4.38888773040369e-5 
-8.562909198658654e-6 
6.765098026418106e-6 
-0.0012832826168229406 
0.5173905326292049 
-1.5278065617385913e-5 
4.261270045943653e-5 
0.0005513158686714668 
0.00010351619233127365 
0.00021286154750854128 
2.6191765144642253e-6 
-3.5085855753767063e-5 
0.0002750812688111941 
-2.374453089444846e-7 
-3.4647351397005116e-6 
1.6020393085775643e-5 
0.0008345593731147305 
6.763125088790684e-7 
2.318260248193569e-6 
0.00017569388445202723 
7.488231089220944e-5 
3.1026582940230766e-6 
-7.457360076755603e-5 
0.0002500912974057022 
0.00046576170057727564 
-1.4102461131455593e-5 
-1.0145233738597866e-5 
0.00010456550000647291 
-0.00026663619618340253 
1.686504071364164e-6 
-4.5465969935424484e-5 
-3.0008442172132664e-5 
0.0008867479153753357 
0.00425743801232143 
-3.199074364835602e-7 
-1.7322477473174088e-5 
-0.0007699437557471403 
-1.7297232987235855e-6 
9.310765633635612e-5 
8.813175402498905e-5 
0.5341501755223943 
-3.412461237430307e-6 
5.6346084794916726e-5 
-0.00017989326331630667 
0.3217235821231191 
-6.435030385871812e-7 
5.054659642083769e-5 
-1.1003856180802174e-6 
1.3488344582198489e-5 
5.051609628466792e-6 
0.0007101807423670898 
0.0008218389892706864 
-8.187899167713246e-7 
4.326193617793111e-6 
2.580273526800898e-5 
0.24969907901946398 
-8.69673430378897e-6 
-4.569475711783243e-6 
0.00042366505366025174 
-0.006878000929605546 
0.012407970276704663 
-9.713620305955698e-6 
-3.33633255029669e-5 
0.0019312752973804591 
-9.946358577623944e-7 
1.2069077118387977e-5 
-3.890302513002863e-5 
0.021112428628028864 
4.038723276750329e-6 
5.8860756784364805e-5 
-0.0019140562270124112 
-6.847862819841506e-5 
0.00011882531233635491 
8.531489425809759e-6 
-1.3210039972362308e-5 
8.943207476674842e-6 
3.755288328012047e-6 
6.54744397455601e-5 
-0.0006463207253225935 
-9.830101926134861e-5 
-0.00452225787949834 
0.028875089495808748 
-6.14807992359168e-6 
6.674643339977805e-5 
-0.00030935474051226026 
-2.5905165644784186e-6 
-9.046821106723099e-7 
-3.485786051615485e-5 
0.004388418477962149 
-4.057430253528419e-6 
5.414932203991244e-5 
0.0008002034898222526 
-0.00016192192149289998 
-2.6103737278045402e-5 
-1.1845051416223097e-5 
1.74229019930257e-5 
7.40723474159929e-5 
4.896055346877963e-5 
2.629769809018037e-6 
0.0005057755368143901 
0.08078021385551311 
-6.42923306593945e-6 
-8.479225536443918e-6 
0.0003302464928834912 
0.4010391915653814 
5.299758049968224e-6 
-8.594018022315577e-5 
0.0005810741974326607 
-5.31833095716753e-7 
-6.066120162726876e-6 
0.00017920341452648886 
-0.00012942177370122145 
0.0007728082151325225 
1.6064917466072698e-6 
2.841730616642668e-5 
-2.5771340312934538e-5 
1.2613535078867629e-5 
-3.945720492055198e-6 
0.0009495938389768541 
-0.00013854128188499468 
-0.0018515190888295661 
-2.1622915719889165e-6 
-4.131931582777568e-5 
-2.2691869458832637e-6 
-6.987288454920657e-6 
-0.00010500720744265717 
0.0006199489814062716 
-3.293914322323704e-5 
-0.00027171833439827497 
-4.210158100264141e-5 
-1.7368918762141024e-6 
-5.370240691388102e-6 
9.064902022047581e-5 
-2.87351859087429e-7 
0.007288350509119102 
-2.0752811156776107e-5 
2.6157313580468084e-5 
0.0001532737439566097 
0.0011339170548280372 
-8.627942916756621e-8 
5.366116302347002e-6 
5.7683694103573205e-5 
0.0031452479245649852 
0.016565898315938497 
0.0062052543000209 
-1.5713617534968003e-5 
0.0002058611046440525 
0.0007947735627635564 
0.0003939861228632937 
8.220766844814918e-5 
-0.0004393088242739394 
4.3085802419984565e-6 
8.995527207530442e-6 
7.893901646779791e-5 
3.4846539775840824e-7 
2.539880206254571e-5 
1.8360217740859775e-6 
-0.00014519196068242543 
-8.109671464070055e-6 
-3.658379991263735e-6 
5.850896027126446e-5 
0.0001164679716952563 
-6.405656223735421e-7 
2.9300964670560732e-5 
-9.850295695047466e-5 
0.3646808288014992 
-4.790742242753338e-6 
-6.665261595511048e-5 
-0.0001399282051425939 
0.08610036482357122 
0.0009032194351221697 
0.03476814412164855 
-1.625114823615062e-6 
-1.9110932071723478e-5 
0.00028411698888106335 
-0.0002835574051332688 
0.06250919704275193 
-4.4952650440553444e-7 
3.576207566286037e-5 
-0.00030775707011767146 
9.056757252448294e-5 
2.085202976251707e-6 
-9.804122656692963e-6 
0.018678005292811897 
0.10457438059773258 
0.0025518497163370935 
5.198258210747788e-6 
8.661163555210911e-6 
-5.341564347325308e-5 
5.699431582433156e-5 
-7.252060974219449e-7 
-8.85811128280483e-6 
-1.131581189676745e-5 
0.0001912350357919827 
-6.601615231542682e-5 
-0.0017947721211992213 
-9.87728367196737e-7 
-1.711769953512539e-5 
-0.0004793725503689987 
4.534727410321654e-6 
-1.3834079124381861e-5 
-9.706421485555773e-5 
0.02154834646988535 
-9.020222735581046e-7 
-6.601443973944228e-6 
0.00016932197463085917 
0.0009781118271665848 
0.0416306783011089 
-7.449301362842677e-6 
3.7280087999744734e-5 
0.002558729760581266 
3.8710963871131104e-5 
0.16771039397526044 
6.4285583496631685e-6 
-4.5490949124792194e-5 
-5.618009349468436e-7 
-4.678487597799447e-5 
0.00022974794704658458 
-0.0027590487097844457 
1.0490517297235916e-6 
-1.6141839845114904e-5 
6.244579543385335e-5 
-0.0011345378943794586 
1.5925141449700042e-6 
5.845730861949931e-6 
-9.879714878682613e-5 
-8.877830507543452e-5 
9.059064552220458e-5 
-9.995147743668872e-7 
-5.363166226166e-6 
-5.370313864539877e-7 
1.1767178304006313e-5 
0.0001223282355253454 
0.000348307062477859 
-1.073179984634638e-6 
1.5281989323582182e-5 
5.195698429490293e-5 
-7.355844390689372e-5 
-0.00026016410898189215 
0.0044446466558277185 
-4.311971437907147e-6 
4.098629895987307e-6 
-0.000904811905208597 
4.063591021262463e-6 
-4.9735393535105794e-6 
3.738249180627184e-5 
2.476559137872088e-5 
-1.7530682571879673e-5 
0.10435934976089184 
5.204661265026064e-7 
1.7833518297777405e-5 
-0.00031615153595706153 
-0.0008514856973514692 
1.0684096447934823e-6 
-2.5028533589684903e-5 
0.0012997120330023512 
0.0018739781462360145 
0.11643930426961246 
-3.6925988167107174e-6 
-5.623655334102301e-5 
-2.9721933044717596e-6 
-2.3404421553152117e-6 
-0.0001599167206403267 
0.00011220584765195477 
5.2881118741702425e-6 
-0.0014913328997644758 
0.6894198093874908 
-1.8215866958660577e-5 
3.283870924615849e-5 
0.0011602883364019382 
-7.69859555669026e-7 
1.602320794037388e-5 
0.0002848839280633347 
0.002616607907314762 
1.3903852635763434e-5 
0.00013925736558054956 
0.0024048775203548162 
-2.4375065354879592e-5 
0.0001557231803187753 
0.002650721899556328 
-3.4507983776039667e-6 
6.060542633260539e-5 
-0.0009317646098316929 
-5.9171820856421945e-5 
4.5670151210158105e-5 
5.599656695520301e-7 
-1.52651072839527e-5 
-0.0009775767693768849 
0.003078954589762894 
-1.231726726814319e-6 
-7.561415960160472e-5 
0.0028770772952528617 
0.0005985635883487738 
-1.5222263619111008e-5 
0.0002322574705474837 
-2.108762042978385e-6 
1.647287809509527e-5 
4.675584866581027e-5 
-0.00015558655868086005 
0.00047005040186038965 
-1.3081364246539853e-6 
-1.1527863442977656e-5 
-0.00016484850007140192 
0.0014903773511385633 
-2.3325519378271695e-5 
-6.254721058907994e-6 
-4.085440946099694e-5 
-0.0008570790737705733 
2.6857028876331167e-5 
1.638195153501056e-5 
-1.870401810589485e-5 
9.459358706431592e-6 
-1.6789997156873133e-5 
0.0001064639319515981 
-3.602236699066396e-6 
3.355298149728496e-5 
-0.0002738590072355408 
0.00017739384578855486 
-2.6755242496222084e-7 
1.2851282666340131e-5 
6.472857990005766e-5 
-0.00046564811439482313 
0.47835321283882093 
-2.461830149223176e-7 
-3.0099790301612985e-5 
-6.482450804340937e-5 
9.349242064517334e-6 
7.8558274801556e-7 
0.00017912079970988187 
0.01940680971810753 
-0.001196051149917354 
1.0343127313773533e-6 
-1.0999403485196517e-5 
5.699601724499002e-5 
0.03357066375822265 
0.0003872974502713589 
3.7555369259188015e-7 
-5.515431637201994e-6 
0.0001336315396019203 
0.28965044508133914 
2.9023416895783173e-6 
-9.165417171835553e-5 
0.00022479459384627795 
-0.0010525695699193677 
-1.9621447846436354e-6 
-2.808315430613602e-5 
0.00019904752273948017 
-0.0005400054389849647 
0.006318420508774479 
0.0004770861272407703 
0.07697768502780929 
0.022112710297807422 
0.056873397422408774 
-7.944163267460953e-6 
1.8549475673408602e-5 
-1.3879471183429318e-6 
-3.538417369631819e-5 
-6.278305134125629e-5 
-6.136467259111088e-5 
0.017025761757049653 
0.004990655651728551 
0.006562911458249521 
-2.3179987528142447e-5 
6.602877934440528e-5 
3.472682445427858e-5 
4.2223119342119946e-5 
-7.001434668958093e-5 
1.0019416483604064e-5 
-0.00034015513798402804 
2.9567139654212006e-5 
0.00010496512012201742 
-0.002663547713583723 
0.004473944711185749 
2.8959917413125484e-5 
-6.855052854491726e-5 
0.16516804652300618 
0.04998921039908865 
-1.7481264018309457e-5 
1.5260485638811767e-5 
-0.00012548312887079017 
8.595257001703017e-5 
0.006331921463473367 
-0.008119884366145864 
7.983316808392237e-5 
0.0005294355433468848 
-1.4920771791698474e-5 
-3.6486637076845005e-6 
-3.343660607487547e-5 
2.58733686193308e-5 
3.687865200217874e-5 
-0.00023826547929274342 
-0.00035766866752281416 
0.00019349007848728407 
0.0006368819434451996 
0.0006899691816757498 
-0.00010100332905636067 
0.0010678205744302398 
-0.0005125856033194612 
-7.277173856747446e-7 
2.8768031979774133e-7 
6.597430077627841e-7 
-5.25544635099729e-6 
1.326294363772277e-5 
-1.0229282441583274e-5 
-6.917857958789429e-5 
5.363120918871818e-5 
-5.903690916573572e-5 
-0.00047986467342610214 
0.00017597359759505848 
9.460358910354106e-7 
-2.284396899420532e-7 
6.9913722880405025e-6 
6.185574951935449e-6 
1.177574790842187e-5 
9.045433970476962e-5 
0.00042436828670463795 
4.193464215541451e-5 
2.0991738008655413e-7 
-3.5066080417698785e-7 
-2.710698244656064e-5 
1.1136325138740355e-5 
2.880356912571183e-5 
7.325867965409904e-5 
0.0005270320119804961 
-0.00010454652390945282 
-0.00014351556077800046 
0.01631155212071668 
0.009570309542741113 
0.031295879260728576 
-9.621180974292227e-7 
2.59480094517442e-6 
-5.482609417279574e-7 
-1.304243441027227e-5 
-1.775430746112143e-5 
1.0546890903625509e-5 
6.590396083930553e-7 
-1.0787645273251906e-7 
-5.014501120684159e-7 
1.7136477752566925e-5 
-2.286916458441938e-5 
3.713342947332087e-7 
2.3278673467482116e-7 
-9.923783450826217e-5 
-3.930782699468382e-5 
-7.241269037433438e-5 
0.0003459803524960716 
-0.0006659209961762285 
-1.3804605791925992e-5 
2.602643234421432e-6 
-1.520041183547228e-5 
-4.161091369950395e-6 
-2.57956555423196e-7 
2.5116998270008473e-7 
1.084810380399194e-5 
3.122201713481846e-6 
9.047156334793001e-5 
-0.00043241175616705774 
0.0004407907834954885 
0.00017255318188871385 
-9.832039909328132e-5 
-1.1084323297101904e-6 
-1.926861061421883e-5 
-5.049883536478516e-5 
-1.4702815128625953e-6 
-1.2421491162022298e-6 
5.251540902202996e-5 
0.00012286192695525836 
0.00011721655551089642 
4.6409716765463946e-5 
2.0445234198307907e-6 
6.978129936344515e-7 
-2.733369543217549e-5 
-8.50918115248114e-6 
-0.0004685170265578408 
0.00035766251982345616 
-0.00018757485676853205 
0.00027144810345955774 
-0.00018416616099970262 
-0.0003414076297921417 
5.415928730032687e-6 
-5.9683782947682594e-6 
-3.4532042886419863e-6 
1.0996671942263501e-5 
-1.7205659203498176e-5 
1.3411846392264556e-5 
-7.845398862861305e-5 
5.180561963353486e-5 
-0.0002854145362200835 
-2.2564521443968682e-7 
-3.1330987910731494e-9 
1.4442969761014961e-5 
-1.2657491051876837e-5 
8.072834740137734e-5 
-0.00014973046142143163 
0.0001636193795729159 
9.582169430616058e-5 
0.004849749095167484 
0.0028635920286356363 
2.31292039147072e-6 
-2.1771864658685442e-6 
1.407322209045898e-5 
6.652785173795832e-6 
0.0009004810629767837 
0.00030372682730568147 
-0.0009386748380907968 
-6.293473761718081e-5 
4.8171279085681374e-5 
0.00021878855133181216 
-1.7242074851693779e-6 
1.558986058450149e-5 
-7.30552129382025e-6 
8.686084941372857e-5 
5.823190430628618e-5 
-9.400511025493512e-5 
-2.886537247581355e-5 
1.1462586688041295e-5 
-0.0007137528257208769 
0.0008573832292715476 
1.7611665510738785e-6 
-2.0132951392515413e-7 
1.5853212572456666e-5 
-3.5131222443999445e-6 
0.00018396149015590128 
-2.1018877200166205e-5 
3.1609858901086045e-5 
-0.00017067148875673035 
0.000569426576423014 
6.017534634836052e-6 
-1.2032540227889564e-6 
-6.159364134036965e-6 
-1.5098346328237757e-5 
-4.702089676592108e-5 
9.640323025512309e-5 
-0.00012778111006543213 
-0.00032341991745237755 
0.00012585992756404332 
-7.401386355802099e-6 
6.67151981055535e-6 
-4.156365618662534e-6 
1.4337053408178488e-5 
-1.255813969104327e-5 
-3.073382710947434e-6 
2.3986595092817794e-5 
-8.638192190008379e-5 
0.00011847205944085816 
0.0004253336599023884 
-0.0008711287429299464 
-9.310681403598754e-5 
0.0001292231830687043 
-0.0002966415341093265 
-2.7706431139356216e-5 
4.151941540317432e-5 
-9.56000859047842e-6 
-3.326586391108112e-6 
3.046116486193684e-5 
-6.144868089073974e-5 
2.578493306064218e-5 
-0.0002168003167268196 
0.0010122925531343722 
-0.0003553861230302056 
-1.384320265986422e-6 
-5.921104542944691e-7 
-2.8787338165667937e-6 
3.6370415033729147e-6 