# vtk DataFile Version 3.0 
Unstructured Grid 
ASCII 
DATASET UNSTRUCTURED_GRID
POINTS 2173 float 
-0.5 -0.5 0  
0.5 -0.5 0  
0.5 0.5 0  
-0.5 0.5 0  
-0.475 -0.5 0  
-0.45 -0.5 0  
-0.425 -0.5 0  
-0.4 -0.5 0  
-0.375 -0.5 0  
-0.35 -0.5 0  
-0.325 -0.5 0  
-0.3 -0.5 0  
-0.275 -0.5 0  
-0.25 -0.5 0  
-0.225 -0.5 0  
-0.2 -0.5 0  
-0.175 -0.5 0  
-0.15 -0.5 0  
-0.125 -0.5 0  
-0.1 -0.5 0  
-0.075 -0.5 0  
-0.05 -0.5 0  
-0.025 -0.5 0  
-1.3761214e-12 -0.5 0  
0.025 -0.5 0  
0.05 -0.5 0  
0.075 -0.5 0  
0.1 -0.5 0  
0.125 -0.5 0  
0.15 -0.5 0  
0.175 -0.5 0  
0.2 -0.5 0  
0.225 -0.5 0  
0.25 -0.5 0  
0.275 -0.5 0  
0.3 -0.5 0  
0.325 -0.5 0  
0.35 -0.5 0  
0.375 -0.5 0  
0.4 -0.5 0  
0.425 -0.5 0  
0.45 -0.5 0  
0.475 -0.5 0  
0.5 -0.475 0  
0.5 -0.45 0  
0.5 -0.425 0  
0.5 -0.4 0  
0.5 -0.375 0  
0.5 -0.35 0  
0.5 -0.325 0  
0.5 -0.3 0  
0.5 -0.275 0  
0.5 -0.25 0  
0.5 -0.225 0  
0.5 -0.2 0  
0.5 -0.175 0  
0.5 -0.15 0  
0.5 -0.125 0  
0.5 -0.1 0  
0.5 -0.075 0  
0.5 -0.05 0  
0.5 -0.025 0  
0.5 -1.3761214e-12 0  
0.5 0.025 0  
0.5 0.05 0  
0.5 0.075 0  
0.5 0.1 0  
0.5 0.125 0  
0.5 0.15 0  
0.5 0.175 0  
0.5 0.2 0  
0.5 0.225 0  
0.5 0.25 0  
0.5 0.275 0  
0.5 0.3 0  
0.5 0.325 0  
0.5 0.35 0  
0.5 0.375 0  
0.5 0.4 0  
0.5 0.425 0  
0.5 0.45 0  
0.5 0.475 0  
0.475 0.5 0  
0.45 0.5 0  
0.425 0.5 0  
0.4 0.5 0  
0.375 0.5 0  
0.35 0.5 0  
0.325 0.5 0  
0.3 0.5 0  
0.275 0.5 0  
0.25 0.5 0  
0.225 0.5 0  
0.2 0.5 0  
0.175 0.5 0  
0.15 0.5 0  
0.125 0.5 0  
0.1 0.5 0  
0.075 0.5 0  
0.05 0.5 0  
0.025 0.5 0  
1.3761214e-12 0.5 0  
-0.025 0.5 0  
-0.05 0.5 0  
-0.075 0.5 0  
-0.1 0.5 0  
-0.125 0.5 0  
-0.15 0.5 0  
-0.175 0.5 0  
-0.2 0.5 0  
-0.225 0.5 0  
-0.25 0.5 0  
-0.275 0.5 0  
-0.3 0.5 0  
-0.325 0.5 0  
-0.35 0.5 0  
-0.375 0.5 0  
-0.4 0.5 0  
-0.425 0.5 0  
-0.45 0.5 0  
-0.475 0.5 0  
-0.5 0.475 0  
-0.5 0.45 0  
-0.5 0.425 0  
-0.5 0.4 0  
-0.5 0.375 0  
-0.5 0.35 0  
-0.5 0.325 0  
-0.5 0.3 0  
-0.5 0.275 0  
-0.5 0.25 0  
-0.5 0.225 0  
-0.5 0.2 0  
-0.5 0.175 0  
-0.5 0.15 0  
-0.5 0.125 0  
-0.5 0.1 0  
-0.5 0.075 0  
-0.5 0.05 0  
-0.5 0.025 0  
-0.5 1.3761214e-12 0  
-0.5 -0.025 0  
-0.5 -0.05 0  
-0.5 -0.075 0  
-0.5 -0.1 0  
-0.5 -0.125 0  
-0.5 -0.15 0  
-0.5 -0.175 0  
-0.5 -0.2 0  
-0.5 -0.225 0  
-0.5 -0.25 0  
-0.5 -0.275 0  
-0.5 -0.3 0  
-0.5 -0.325 0  
-0.5 -0.35 0  
-0.5 -0.375 0  
-0.5 -0.4 0  
-0.5 -0.425 0  
-0.5 -0.45 0  
-0.5 -0.475 0  
-0.002115384 -0.00023065208 0  
-0.20714286 -0.20714286 0  
0.20714286 -0.20714286 0  
0.20714286 0.20714286 0  
-0.20714286 0.20714286 0  
-0.28155318 -0.0017231192 0  
0.0017231192 -0.28155318 0  
0.28155318 0.0017231192 0  
-0.0017231192 0.28155318 0  
0.3319978 -0.33098683 0  
0.33098683 0.3319978 0  
-0.3319978 0.33098683 0  
-0.33098683 -0.3319978 0  
-0.14015679 -0.06698606 0  
0.06698606 -0.14015679 0  
0.14015679 0.06698606 0  
-0.06698606 0.14015679 0  
-0.1387125 -0.34573975 0  
0.34573975 -0.1387125 0  
0.1387125 0.34573975 0  
-0.34573975 0.1387125 0  
0.14046866 -0.34602854 0  
0.34602854 0.14046866 0  
-0.14046866 0.34602854 0  
-0.34602854 -0.14046866 0  
-0.05869875 -0.16617337 0  
0.18217777 -0.061504476 0  
0.062312964 0.18362015 0  
-0.18362015 0.062312964 0  
-0.034321424 -0.38563195 0  
0.38563195 -0.034321424 0  
0.034321424 0.38563195 0  
-0.38563195 0.034321424 0  
0.39586002 -0.2428538 0  
0.2428538 0.39586002 0  
-0.39586002 0.2428538 0  
-0.2428538 -0.39586002 0  
0.23688246 -0.38952246 0  
0.38952246 0.23688246 0  
-0.23688246 0.38952246 0  
-0.38952246 -0.23688246 0  
-0.24287231 -0.09948847 0  
0.09948847 -0.24287231 0  
0.24287231 0.09948847 0  
-0.09948847 0.24287231 0  
-0.11560815 -0.24300627 0  
0.24300627 -0.11560815 0  
0.11560815 0.24300627 0  
-0.24300627 0.11560815 0  
-0.40192315 -0.4008276 0  
0.4008276 -0.40192315 0  
0.40192315 0.4008276 0  
-0.4008276 0.40192315 0  
0.06409326 -0.40289903 0  
0.40289903 0.06409326 0  
-0.06409326 0.40289903 0  
-0.40289903 -0.06409326 0  
0.2962961 -0.23982804 0  
0.23982804 0.2962961 0  
-0.2962961 0.23982804 0  
-0.23982804 -0.2962961 0  
-0.28087237 -0.21196799 0  
0.21196799 -0.28087237 0  
0.28087237 0.21196799 0  
-0.21196799 0.28087237 0  
-0.0901279 0.007867504 0  
-0.05002927 -0.07494272 0  
0.0873353 -0.009871756 0  
0.0071518295 0.09216282 0  
-0.14120433 -0.1484696 0  
-0.14581114 0.13960092 0  
0.1458264 -0.14505939 0  
0.13960092 0.14581114 0  
0.41838804 -0.3182741 0  
0.3182741 0.41838804 0  
-0.41838804 0.3182741 0  
-0.3182741 -0.41838804 0  
0.32118136 -0.41712493 0  
0.41712493 0.32118136 0  
-0.32118136 0.41712493 0  
-0.41712493 -0.32118136 0  
-0.19707234 -0.014843048 0  
0.018050108 -0.20183705 0  
0.19707234 0.014843048 0  
-0.014843048 0.19707234 0  
-0.10938372 -0.41847488 0  
0.41847488 -0.10938372 0  
0.10938372 0.41847488 0  
-0.41847488 0.10938372 0  
0.15773043 -0.4267032 0  
0.4267032 0.15773043 0  
-0.15773043 0.4267032 0  
-0.4267032 -0.15773043 0  
-0.3204562 -0.07174808 0  
0.07174808 -0.3204562 0  
0.3204562 0.07174808 0  
-0.07174808 0.3204562 0  
0.02801032 -0.07269879 0  
-0.31817523 0.069836795 0  
-0.069836795 -0.31817523 0  
0.31817523 -0.069836795 0  
0.069836795 0.31817523 0  
0.43106207 -0.17757268 0  
0.17757268 0.43106207 0  
-0.43106207 0.17757268 0  
-0.17757268 -0.43106207 0  
0.0703783 0.071201205 0  
-0.051593844 0.064346604 0  
0.099701226 -0.08333426 0  
0.2863281 -0.17248559 0  
0.17248559 0.2863281 0  
-0.2863281 0.17248559 0  
-0.17248559 -0.2863281 0  
-0.2341888 0.04979648 0  
-0.049194112 -0.231281 0  
0.23358595 -0.04946041 0  
0.04979648 0.2341888 0  
-0.009939441 -0.13691185 0  
-0.26560438 -0.17864102 0  
0.17864102 -0.26560438 0  
0.26560438 0.17864102 0  
-0.17864102 0.26560438 0  
0.013302229 -0.43510666 0  
0.43510666 0.013302229 0  
-0.013302229 0.43510666 0  
-0.43510666 -0.013302229 0  
0.09432827 0.114700764 0  
-0.11539384 0.093188405 0  
-0.3413634 -0.005100272 0  
0.005100272 -0.3413634 0  
0.3413634 0.005100272 0  
-0.005100272 0.3413634 0  
-0.19817708 -0.3508856 0  
0.3508856 -0.19817708 0  
0.19817708 0.3508856 0  
-0.3508856 0.19817708 0  
-0.34100306 -0.27216324 0  
0.27216324 -0.34100306 0  
0.34100306 0.27216324 0  
-0.27216324 0.34100306 0  
-0.20269383 -0.14403741 0  
0.14393912 -0.2028372 0  
0.2026342 0.14393856 0  
-0.14393856 0.2026342 0  
-0.1030633 -0.10524017 0  
-0.4394695 -0.104853734 0  
0.104853734 -0.4394695 0  
0.4394695 0.104853734 0  
-0.104853734 0.4394695 0  
-0.44156647 -0.44156647 0  
0.44156647 -0.44156647 0  
0.44156647 0.44156647 0  
-0.44156647 0.44156647 0  
-0.2683254 -0.44465622 0  
0.44465622 -0.2683254 0  
0.2683254 0.44465622 0  
-0.44465622 0.2683254 0  
0.2654342 -0.4435478 0  
0.4435478 0.2654342 0  
-0.2654342 0.4435478 0  
-0.4435478 -0.2654342 0  
-0.27373606 -0.34534052 0  
0.34534052 -0.27373606 0  
0.27373606 0.34534052 0  
-0.34534052 0.27373606 0  
-0.05307205 -0.4481981 0  
0.4481981 -0.05307205 0  
0.05307205 0.4481981 0  
-0.4481981 0.05307205 0  
-0.35614902 -0.19390328 0  
0.19390328 -0.35614902 0  
0.35614902 0.19390328 0  
-0.19390328 0.35614902 0  
-0.14022674 -0.012452113 0  
0.14171903 0.011271359 0  
-0.01125192 0.14089845 0  
-0.19556868 -0.06932378 0  
0.070511825 -0.19668652 0  
0.19556868 0.06932378 0  
-0.06932378 0.19556868 0  
-0.24951252 -0.039742906 0  
0.04037078 -0.2503529 0  
0.24951252 0.039742906 0  
-0.039742906 0.24951252 0  
0.44100407 -0.36164257 0  
0.36164257 0.44100407 0  
-0.44100407 0.36164257 0  
-0.36164257 -0.44100407 0  
-0.4451273 -0.36589316 0  
0.36589316 -0.4451273 0  
0.4451273 0.36589316 0  
-0.36589316 0.4451273 0  
0.1121834 -0.30242515 0  
0.30242515 0.1121834 0  
-0.1121834 0.30242515 0  
-0.30242515 -0.1121834 0  
-0.115146436 -0.19087775 0  
0.19190264 -0.11309679 0  
0.11520548 0.19263776 0  
-0.19263776 0.11520548 0  
-0.08287991 -0.37025127 0  
0.37025127 -0.08287991 0  
0.08287991 0.37025127 0  
-0.37025127 0.08287991 0  
0.23791528 -0.24381089 0  
0.24381089 0.23791528 0  
-0.23791528 0.24381089 0  
-0.24381089 -0.23791528 0  
-0.44626984 -0.21174923 0  
0.21174923 -0.44626984 0  
0.44626984 0.21174923 0  
-0.21174923 0.44626984 0  
0.35174853 -0.37705234 0  
0.37705234 0.35174853 0  
-0.35174853 0.37705234 0  
-0.37705234 -0.35174853 0  
-0.048605647 -0.023262763 0  
-0.1551113 -0.21381997 0  
0.21381997 -0.1551113 0  
0.1551113 0.21381997 0  
-0.21381997 0.1551113 0  
-0.29403278 -0.30027482 0  
0.30027482 -0.29403278 0  
0.29403278 0.30027482 0  
-0.30027482 0.29403278 0  
0.12173745 -0.390654 0  
0.390654 0.12173745 0  
-0.12173745 0.390654 0  
-0.390654 -0.12173745 0  
-0.12236246 -0.2979882 0  
0.2979882 -0.12236246 0  
0.12236246 0.2979882 0  
-0.2979882 0.12236246 0  
-0.0945969 -0.046371013 0  
0.035276897 -0.027358124 0  
-0.0076714605 0.051946 0  
-0.30809116 -0.17165439 0  
0.17165439 -0.30809116 0  
0.30809116 0.17165439 0  
-0.17165439 0.30809116 0  
-0.16592422 -0.10879113 0  
0.10700909 -0.1687818 0  
0.16864619 0.10664837 0  
-0.10664837 0.16864619 0  
-0.16784625 -0.38069874 0  
0.38069874 -0.16784625 0  
0.16784625 0.38069874 0  
-0.38069874 0.16784625 0  
-0.4563872 -0.05993889 0  
0.05993889 -0.4563872 0  
0.4563872 0.05993889 0  
-0.05993889 0.4563872 0  
0.31103167 -0.37412483 0  
0.37412483 0.31103167 0  
-0.31103167 0.37412483 0  
-0.37412483 -0.31103167 0  
-0.3909646 -0.012754724 0  
0.012754724 -0.3909646 0  
0.3909646 0.012754724 0  
-0.012754724 0.3909646 0  
0.44915667 -0.21679194 0  
0.21679194 0.44915667 0  
-0.44915667 0.21679194 0  
-0.21679194 -0.44915667 0  
0.045831423 0.12033131 0  
-0.12662303 0.045442794 0  
-0.3107799 -0.37355793 0  
0.37355793 -0.3107799 0  
0.3107799 0.37355793 0  
-0.37355793 0.3107799 0  
0.04152367 0.021693805 0  
-0.08040017 -0.2675595 0  
0.26794365 -0.08044455 0  
0.080500565 0.2680441 0  
-0.2680441 0.080500565 0  
-0.13753757 -0.45578164 0  
0.45578164 -0.13753757 0  
0.13753757 0.45578164 0  
-0.45578164 0.13753757 0  
-0.05507968 -0.12135967 0  
0.14172421 -0.09428923 0  
0.2571752 -0.19664502 0  
[...]
POINT_DATA 2173 
SCALARS T float 
LOOKUP_TABLE default 
-3.013154815883849e-19 
-1.5037356591594505e-18 
-7.421137663840217e-18 
-2.3768499300613e-20 
-3.556501509862794e-18 
4.841534783088948e-18 
1.0617633019759598e-17 
5.203485196091355e-18 
1.0252182960425498e-17 
1.6348237598376985e-17 
9.333151665628416e-18 
-1.1282591178431761e-17 
3.4199868474202535e-17 
-6.357534583086462e-17 
4.3749609171903765e-17 
-9.694598067287748e-18 
-3.309156030382251e-17 
4.186422247077237e-17 
-7.75475858018079e-17 
7.920548655211186e-17 
-4.601918428292529e-17 
3.3304806108289746e-17 
-2.141887899144629e-19 
-2.8722197111060543e-18 
1.1950564009436078e-17 
-2.707169393315439e-17 
3.7019387821767705e-17 
8.979680326101839e-18 
-3.3013863601405507e-17 
1.1225012325014892e-17 
-6.721972951074659e-17 
2.728827112419369e-17 
-2.5516910502745333e-17 
-1.0762137872707825e-16 
9.645787577774425e-17 
2.2065322409380492e-17 
1.1897471766474427e-17 
-1.3160785677782656e-16 
-5.548692585536142e-17 
3.513982745230386e-17 
-8.285423491616625e-17 
3.321732086661683e-17 
5.195187637635447e-17 
-4.838675069014547e-17 
6.699995473174707e-18 
1.261072895239362e-16 
4.576081466771053e-17 
4.747597828966035e-17 
1.5408351069449e-17 
-7.910160244533582e-17 
1.9737852794544937e-17 
2.209654783838076e-16 
-1.4623233875642814e-16 
3.410740415777601e-16 
-1.7390299332833277e-16 
2.170937543967895e-17 
-2.7550996846196853e-17 
-3.6833087249718293e-16 
3.243275482977959e-16 
-2.631864936909461e-16 
2.2332833070075383e-17 
1.6626276486403286e-16 
-1.328535460692604e-16 
1.9217325380299063e-16 
-3.394719673787089e-16 
3.2979244824237844e-16 
3.5390995607327763e-16 
-6.343654545556971e-17 
2.2376171553908526e-16 
-3.6295088027620747e-16 
4.2773209706122917e-16 
-5.408354562962055e-16 
2.551194203455323e-16 
1.7502891923179835e-16 
-4.9249923534281455e-16 
1.053827762090897e-16 
5.1476410487993836e-17 
9.359794625538165e-17 
6.588795821824205e-17 
2.4534982437602164e-16 
7.100547520140849e-17 
4.26990028165415e-17 
-3.8028524366613434e-17 
6.516609939217008e-17 
-2.926930661826894e-16 
2.2368193482786716e-16 
1.5395433985172807e-17 
-2.089290728035608e-16 
-5.152978780879791e-16 
-9.598913404551355e-16 
1.4728886446158203e-16 
-7.033195654177808e-16 
4.942179081675051e-16 
2.2131669769585175e-16 
-1.886209392584098e-16 
-4.007738280804267e-17 
1.28690497350357e-16 
-6.030051704687451e-16 
4.659275131388087e-16 
-7.409578776537196e-16 
4.1065881957303497e-16 
-6.14491297171565e-16 
5.802803551923833e-16 
-5.671474913568084e-16 
4.89265068311108e-16 
-5.894941464791679e-16 
-6.306772693290308e-17 
-1.1693938410604988e-16 
-3.6961117462625973e-17 
-3.6593883719793435e-17 
-1.980783363051256e-17 
1.1752662162116271e-17 
1.3209526248708048e-17 
1.2383264059391757e-17 
4.422643485882991e-18 
3.441170234892166e-20 
-1.7615523930152973e-18 
-3.738590608239375e-19 
-2.134472078475438e-18 
-5.150810431098213e-19 
7.166155110745999e-19 
-7.056407386532644e-19 
7.693224821691399e-19 
2.4946458298924172e-18 
7.564850397840716e-19 
1.33196405231429e-18 
5.572974044200642e-19 
1.6820784277472287e-19 
-1.4360020567447281e-18 
-1.0922745814768918e-18 
-1.9557139495131763e-18 
-6.255740689472277e-19 
-8.716757782901027e-19 
-1.4731375108717924e-18 
-9.33509298050843e-19 
-3.377597756580066e-18 
9.877301676989593e-19 
-2.4536994641513588e-18 
-2.0340785126646433e-20 
-8.301262199300003e-19 
2.087342372057423e-18 
-3.478142681490885e-18 
5.2015250655542555e-18 
-4.2314777855465106e-18 
1.793817974738964e-18 
-4.869780682718466e-18 
-1.5144109198348927e-18 
2.7387502705459266e-18 
-8.59008732621672e-18 
9.641658114280206e-18 
-1.1279180668996418e-17 
6.6301554840116365e-18 
5.823659151533345e-18 
-3.601960833275304e-18 
-4.5105145016131665e-18 
-6.0990996070786084e-18 
-4.35094852374109e-19 
-1.3673120527869196e-17 
-2.6749526865616637e-18 
3.3292964903314618e-18 
6.711837477762335e-6 
-1.7967552776162526e-5 
5.089475363701556e-6 
0.0004504639302530665 
0.03314058959246584 
-1.029770574681219e-6 
2.5125779135966262e-5 
-0.00016435543032967173 
0.24365210203155457 
-6.592198705358617e-5 
-0.0001144986078440199 
-4.209543745466063e-7 
-8.196166822775971e-7 
3.165861531984509e-6 
1.0302034796370769e-5 
-0.00010787378939818361 
0.12783120702378684 
-3.924825038169219e-5 
1.4950707710455381e-5 
0.0008924843197201115 
-2.9425376309060865e-6 
-3.577266672483463e-5 
-4.164267023113222e-5 
0.043298869758152836 
-7.829310965041361e-6 
1.38719806973216e-5 
-4.146879525228988e-5 
0.020175932193230193 
0.0002612098185767297 
5.080033624987758e-5 
8.562197369766903e-5 
0.004279842060615856 
-3.2634581043973404e-6 
0.00011484516870613783 
0.0003982515272461816 
9.894316702256971e-7 
9.567269872808149e-6 
4.530862787270873e-5 
0.0004650731891724944 
4.884345568552449e-5 
-1.0800900307001255e-6 
-2.3772618088559455e-6 
1.0993184938004792e-5 
-0.0001945268812476941 
0.542816368797801 
2.159227032723094e-6 
7.319203529257939e-5 
0.0038310260127348236 
0.0004154301275500422 
-1.8234203726510865e-6 
-6.106612836356156e-5 
0.0001075259156117548 
-1.9418701571187155e-6 
-2.3334857428754364e-5 
0.00037738812118599905 
0.007453317523019914 
-1.5279594346130933e-6 
-6.674008181982414e-5 
0.0013457321180549825 
-1.632081391227592e-5 
-6.267721440195749e-6 
5.481399664351645e-6 
-0.00011608669410540287 
0.0008774197703769792 
0.02288164518366402 
1.3303288468807894e-5 
3.0490064410623957e-6 
0.0001650162298264467 
0.006815599714166447 
-1.6479382350902603e-5 
0.05813512171069962 
-2.2701205759532407e-5 
-0.0007074473523065559 
-4.054354417787872e-5 
0.0009117696259637449 
1.1729990691997894e-6 
-2.8134807550415537e-6 
3.463158666382336e-5 
-0.0005084927698574338 
1.3598033657386734e-5 
6.345507270050079e-6 
1.083773031278468e-6 
1.6146580048131632e-7 
-0.0002596960038919952 
0.2932885582787831 
2.6360392149106534e-5 
0.00015885411340830195 
0.0008960450266241017 
-5.536235275535003e-7 
-5.558456477599955e-5 
0.000326013761482649 
0.00016411874753837348 
9.85228624617292e-7 
-7.796890900974742e-6 
-3.886015080686758e-5 
6.378191971311004e-5 
0.21793900526443274 
-0.00012605741166136502 
-1.1438711872385282e-6 
5.657161351499033e-6 
9.069025114403291e-5 
0.010058559651330734 
0.00020055598356782665 
0.00023123625807099817 
7.084510841637951e-7 
1.7602211030031742e-5 
0.0006513880283006971 
0.003959934384464317 
-6.978716491270475e-5 
2.5878215615634612e-5 
0.000348071748417475 
8.600123007187115e-5 
-9.42078724787364e-6 
-2.3613798203092733e-5 
-6.169293548064074e-6 
-0.00017072229425027434 
0.06281987265689515 
6.315853569441791e-6 
-1.1710521524099457e-6 
-0.00016589532083854215 
0.0010289161625922714 
0.0995734169960629 
3.538970651802301e-5 
0.00025296631539030516 
0.0012459516845718744 
-1.7599719587231087e-6 
0.0015000380441128783 
0.014243765977827935 
1.363511088723874e-6 
-9.272375704520533e-6 
-3.6889419438189474e-5 
0.059316168248397715 
-2.7059554765803675e-5 
-7.98540702024008e-5 
8.604260362934532e-5 
-5.031716748267611e-6 
1.4314174668832686e-6 
4.8784385059231055e-5 
0.0014028466654609198 
-6.877095094785981e-6 
1.1598344658769547e-6 
-2.1139128865265747e-5 
0.0006087701465292481 
0.2332334923430296 
1.5396970232825324e-6 
3.7473423935135184e-6 
-7.253577537966057e-6 
-0.00019845168206576377 
0.00023471876678139955 
2.1510035342352784e-6 
1.428166182855336e-5 
7.004861223921968e-5 
1.3817323957466164e-7 
8.808190086105877e-6 
6.0443221623263656e-5 
0.0005465222082738226 
1.0645873617526361e-6 
5.800287323828818e-5 
0.0002132681068612355 
3.1989631858347655e-5 
2.1048705842938757e-7 
-7.573359606945498e-6 
-3.544804451683152e-5 
0.001074820710664374 
-1.1398878010627084e-5 
-1.410167663504586e-6 
0.0002239628162039666 
-0.00017734213862467008 
3.4823298871293474e-7 
6.252025222724112e-6 
-5.88988134824347e-5 
-0.00024329493965788285 
0.005092990960221447 
-1.322358840369304e-5 
-0.0008081290380361348 
0.07362048797710508 
3.581832598169542e-6 
6.101812083907584e-6 
-6.629133993153335e-5 
0.45480747019541706 
-1.0166964670710876e-6 
1.5998702429755324e-5 
0.00016442749957306326 
0.5463401831930773 
-4.398824956410197e-5 
-9.36801275020466e-5 
-1.6339292841484182e-8 
8.404710041915076e-6 
3.536962523921208e-6 
-3.9155488407105944e-5 
-6.890478584345368e-5 
1.5980647718115018e-7 
-5.463130802311939e-6 
-0.000569542665786748 
0.25217067089542855 
1.3842198620457678e-6 
-1.078331092276427e-5 
-3.1746479788997375e-5 
-0.00042955246287964866 
0.0056570845916568855 
-6.2176817840397375e-6 
-1.5234322714230559e-5 
0.0011854931393229873 
1.8534158985206965e-7 
0.0001389282433315634 
0.00016842576153671055 
0.009019872423899244 
-5.126186696229787e-6 
3.958534836543053e-6 
1.7401682147774175e-5 
-0.0001494309196255808 
5.4218256671900905e-5 
8.795730148504159e-6 
1.0814057329911767e-5 
5.223499254751053e-6 
-2.113794529421395e-6 
1.0342082619958686e-8 
9.404959166657253e-6 
-6.286184271197501e-5 
0.0005212511687592244 
0.01057009384809171 
-4.941826556364553e-6 
-0.000119141247892975 
-0.00019098083905952376 
-4.4376837391475934e-5 
4.484441322564252e-6 
-0.00015480948550700073 
0.008919887343420117 
-2.254491150369573e-6 
-4.544082829889329e-5 
4.588997025934455e-5 
0.002312521084045261 
-3.4863355857493715e-5 
-5.871866768831938e-6 
-0.00010299411277088882 
0.0006184391579592679 
5.2996825398522275e-6 
-0.00013832055323548975 
-7.67457855123886e-5 
0.059872367960430224 
4.744452308895564e-6 
-4.431244009014741e-5 
0.00025663278492694627 
0.23744567994943208 
1.672036549165203e-5 
5.887814559667355e-5 
-8.03053820721773e-5 
-8.03875536496351e-7 
1.7825986952762902e-6 
-4.2090589937308826e-6 
-5.629365857357332e-5 
0.0001724010465732872 
2.2133368587911658e-6 
0.00013711550664687681 
-1.100311445172646e-5 
3.1493372562083656e-6 
3.3942720172262864e-6 
-2.425789353474308e-5 
5.804667381670177e-5 
0.007053039262278323 
-0.00012097327154641102 
-0.00046031000381029796 
1.1787456056510638e-6 
-2.40831899321961e-5 
0.007944843973337591 
0.0005391376250899771 
-3.7085853959945133e-6 
3.2597901136716326e-5 
0.000319796257881078 
1.1434117734654338e-6 
-0.0001490853926429536 
-2.9444311352910997e-5 
-0.00020062229960100413 
0.01762498069050869 
-2.126434822168462e-5 
5.3241175100218795e-6 
-4.4752195991541004e-5 
0.0005354004044198899 
1.6316693982544798e-6 
3.6319954652608646e-7 
8.060001856671417e-5 
-6.0115731470349504e-5 
0.0014421402508153292 
0.002151394166246511 
-5.5757323995779655e-6 
-0.0001826515572622952 
-2.30453285556472e-6 
2.4980010423389633e-6 
2.609097953502986e-5 
0.0005913867863716182 
2.3999399830928344e-6 
9.229235547349175e-5 
3.3701072869541836e-5 
-2.3064499120562466e-7 
1.017904825720845e-5 
-4.578374007329949e-5 
0.0002160387861996641 
-3.8023595970127877e-6 
-4.022701634311985e-6 
0.00111811756344398 
0.0216108176262085 
-8.177163787674236e-6 
-3.149889536197034e-5 
-0.0002095973360263794 
0.46743581630091774 
0.00012765373823652912 
-7.083567963146097e-5 
3.746347624937249e-6 
1.8561330281298893e-5 
-7.745638738908615e-5 
0.12376501485957025 
-1.5139211655310957e-5 
-7.235667955384072e-7 
-7.599041645118535e-6 
-1.2592388941722978e-5 
0.2685711176788226 
9.643860415330906e-6 
-5.1611381110252166e-5 
-0.00034182731285321366 
5.037521766887933e-5 
0.0001696663532978072 
-3.180445637277754e-5 
-1.2628958421309183e-5 
-0.00014526062217281726 
0.0043486264453907065 
7.352464198303068e-8 
3.086889885026902e-6 
3.5642603049567567e-5 
0.0005127822372486875 
9.495829049997347e-7 
-3.3640597686330558e-6 
-5.500652739141363e-7 
-3.384532194276481e-5 
-2.3192029389436096e-5 
0.016766570588360043 
2.6156678048486957e-5 
1.1410278513082582e-5 
-0.00034360865117690013 
1.6448581249236535e-6 
7.770089159593179e-5 
0.00028051956193323146 
0.07641751463326883 
-1.016747295014253e-6 
2.0034196134769584e-6 
-5.8688269487346085e-5 
0.00018425127906240366 
0.07423933108317037 
8.526265166361517e-6 
0.0647590764582113 
-6.89137592032023e-5 
-0.0007073357938606318 
-1.1541575379641244e-6 
0.0003000855617477723 
-2.0440575586440358e-5 
-1.3223360490098477e-7 
-4.068204497432123e-6 
0.00020051477660096927 
0.0008409080105166986 
8.254361477428832e-7 
-1.340989161543706e-5 
-4.859504007234923e-6 
0.0002774347862498491 
-1.4070683307235207e-6 
2.3975570102282227e-6 
1.3873488360766132e-6 
2.4454124005441488e-5 
0.0005302912725505213 
-2.9698321408545604e-5 
0.00022494596760876194 
-8.105753682674918e-7 
-1.5537132237821499e-6 
-1.2969221854371089e-5 
0.00014813880773676205 
-7.139786757859068e-7 
-6.569931248068123e-6 
-2.517120490349551e-6 
-7.957061948376352e-5 
8.149477629697389e-5 
0.062840603332671 
-4.218251146918889e-6 
-9.912099441396824e-5 
0.24589289473980702 
0.001720724539606396 
0.0071708340965800105 
-3.429704641496498e-6 
5.322943373283022e-5 
0.00015808711065062054 
0.28421654008777103 
2.7656917005875237e-6 
1.8786254266973727e-5 
0.00010524555192332947 
0.0009696148285416362 
0.00020812599926583848 
-5.671903452262396e-6 
-0.00020433621059793132 
0.0018850175884791436 
0.048675767608852345 
-0.00027822421653394495 
9.083207047947125e-5 
-1.8740284711766918e-7 
-2.4031952375199534e-5 
0.00046907940642452296 
-1.0279550336223742e-5 
7.401387457275203e-5 
0.00029813013097034955 
0.4083801480171072 
1.560818773350915e-5 
0.00016044663005387093 
5.0835653299963325e-5 
-3.9262560523063754e-6 
-0.00017456639840629384 
0.0020938939910317817 
0.0009077278193825337 
-4.1650932418550874e-5 
0.0010001018515352457 
0.021542419900890803 
3.3942909778544785e-5 
0.0012239782906650263 
0.0015097157711465134 
-9.136895762952746e-7 
-2.460419737379296e-7 
-1.2060580389580439e-5 
1.060581711220623e-5 
0.0015592562753440802 
-6.9643994607276554e-6 
-2.6518665527545823e-5 
1.709065371811707e-5 
0.00258956724851508 
-5.934771680746578e-6 
-4.9914965350351756e-5 
0.011534058357639869 
0.00022272381345543268 
-6.045170502843836e-5 
-0.0003735962027337818 
-7.1133264124362845e-6 
1.3143263608385012e-6 
-3.0773775641143997e-5 
-0.00020029527119438075 
-0.00013417047211437418 
1.0667157267797134e-7 
-4.636487568083901e-6 
-1.027674269024609e-5 
-0.00020321414937753978 
-2.932944951455623e-5 
-8.905803616624394e-6 
-6.506018337487227e-5 
2.4879289892781895e-5 
-3.869952363231001e-5 
-0.00021620591193229345 
0.07658189759273991 
-1.711606725822385e-5 
5.936882304986837e-6 
0.0001778758092636236 
-3.3265207995782144e-7 
1.6429279442341071e-6 
-1.6428438922304643e-5 
9.033980224830165e-6 
1.024067813353603e-7 
2.6627979491158383e-6 
-9.607261049514204e-5 
-0.0002701754224413443 
0.264708617222046 
-6.710269406485035e-6 
0.00020012525564125775 
0.0640443027934822 
0.001445859378567658 
-5.1384636291812704e-5 
-1.320202845255683e-5 
-5.705600761345869e-5 
0.0009866271832421844 
5.719300365802908e-7 
1.6835828399511244e-5 
-3.4928058947259935e-6 
1.5149422367509501e-5 
0.00023002355284433614 
-9.375437426524454e-7 
-7.463919663460229e-5 
0.0004017373202167405 
0.11899750373726256 
-2.555368943005152e-6 
1.341274011271413e-5 
7.274382783930128e-5 
3.924669025276193e-6 
-8.506650410685728e-7 
-2.042647082922899e-6 
-1.0396546845255358e-6 
-9.347411535784456e-7 
-8.030373681154436e-6 
0.00010490011897120159 
-5.9810495486926816e-5 
-0.0006642435630702679 
0.0013899248544791821 
0.0010744143319467562 
0.028719713741919315 
0.008737652873380177 
0.02305202823948773 
-1.5965920211276953e-5 
1.8580126945826235e-5 
3.29387051530623e-6 
9.180752691162754e-5 
4.289540473344634e-6 
-7.265889986622476e-5 
0.09669584655862974 
0.05495492192189111 
0.0514835772366256 
-3.0606216874454875e-5 
-5.208464110934315e-7 
-8.99274775550194e-6 
-6.743050048548514e-6 
2.5776642177802237e-6 
0.06432330774282186 
0.02048982486705347 
1.3355477012861946e-5 
2.0086564163384527e-5 
-0.00016723103839183298 
0.0007989430342985151 
5.636627995141003e-6 
0.00022569142817985207 
1.6895160720611367e-5 
-1.2175421065191841e-5 
6.34640103493812e-5 
-3.5546437966410766e-5 
0.03630180335753447 
0.015029752759730874 
0.0004783236449952301 
0.0014791616418478265 
0.00019327641123030603 
1.4025801672702135e-6 
-5.461725153976224e-6 
2.1694955532782067e-6 
9.882792161987436e-6 
1.8523161605543788e-6 
-5.6903750730215505e-6 
2.2593292826372087e-5 
-1.1993110523935984e-6 
3.6841780947488624e-5 
-2.4555947102478405e-5 
-6.459621191564976e-5 
-0.0003205434743347723 
0.0007206861706210598 
-0.00026835617488505785 
8.022972141571844e-7 
1.089326996463624e-6 
7.329870705224954e-8 
6.240665488568131e-6 
2.421140481292692e-7 
0.0001227991843230903 
-2.5098224742030483e-5 
4.6267228337103554e-5 
-5.2728660373185254e-5 
1.6477876727976868e-6 
2.2851272485289273e-7 
4.004895310144695e-6 
3.5692041616723034e-6 
-4.458864086511381e-6 
3.263711036562648e-5 
-0.00016177860007907354 
0.00014039991874295949 
5.279306681625751e-7 
4.995421877546128e-7 
1.9540939740762436e-6 
2.535348338434639e-7 
-2.2871021839101836e-6 
4.530315914375011e-5 
-3.551397746416334e-6 
-2.4608106084783775e-5 
2.130936270011775e-5 
-6.403880459302611e-5 
7.43773896784582e-5 
0.1407536270250357 
0.08307800111350719 
0.13781932466257069 
9.0177674574622e-5 
-4.5974823408427485e-5 
-2.4657905675889254e-7 
2.0422136980472838e-5 
0.000129513062407824 
-0.00045430641349592253 
-4.971684949073361e-7 
5.440450544815941e-8 
-5.086519353239353e-7 
1.1579473314464118e-5 
-1.9073897551406372e-5 
-4.6933703625037175e-6 
-1.5472296266391052e-5 
3.8256537544563855e-5 
-4.388275963543182e-5 
0.00027870400603801097 
-0.00035869444511718465 
-0.00010946658673843148 
-5.239507513697977e-6 
-3.840378737309037e-7 
-7.466952931643272e-6 
-2.430410925785395e-6 
8.033854400319506e-6 
-1.7396070232891014e-6 
-2.8544905365653947e-5 
-4.003679768700405e-5 
-0.00029260699378608397 
-9.455959661632778e-7 
6.002174535585532e-5 
-0.00012243736949460454 
-3.3354448209145963e-6 
5.289254859987628e-6 
-4.701647177430932e-5 
1.6807518364831822e-5 
-0.0003574763433700514 
0.00021740850726609107 
4.846028059119516e-5 
1.8119159383927365e-5 
3.133180384015192e-6 
-2.9933385038569392e-6 
-1.597274936880511e-5 
4.195737603363423e-6 
-6.523161098791701e-8 
-5.645084358796671e-6 
-1.3494130282084078e-6 
-6.305085669798127e-5 
-2.7506959104973173e-5 
-2.7881058898476346e-5 
0.0002575518645873729 
-2.3637716975397902e-6 
-1.8674583193896741e-6 
7.191474257797219e-6 
-5.200868557729939e-6 
2.988742389902284e-7 
-2.2220475942319207e-5 
0.00012501884610385756 
-8.772874042830626e-5 
-5.02984402710908e-7 
-3.182067203258196e-7 
2.905839122148785e-6 
-2.4573503104833305e-6 
2.1254416326971246e-5 
2.1309006903298702e-5 
3.233434755926951e-5 
-7.51809642367286e-5 
0.03727444086943368 
0.03194257182986341 
2.968724823829813e-6 
-7.549162898843713e-7 
-2.1266289134971315e-6 
-1.118916681837172e-6 
-1.2238551881871412e-5 
1.4546270773950673e-5 
0.0007084197406146078 
-0.0005958397734468978 
-0.0010286145059872525 
-2.4072044003411157e-5 
1.1707508973660678e-5 
0.0001100872102808674 
0.0018712969743615805 
0.0004465867028967069 
3.745290166060735e-5 
-5.219198567174588e-6 
0.0002959884912833779 
-0.0001447347199684622 
0.0005564493968044856 
0.0005257829480645389 
1.9473194418486042e-7 
8.470100032458174e-7 
-7.709046545344033e-6 
-3.100918663685986e-5 
3.7995308524942334e-5 
-0.0002175297181610942 
0.00036881908351503706 
-0.0003368953837968195 
0.0019266219771313445 
0.002651499325290086 
0.0006703566857125362 
3.205426997594582e-6 
-1.8745139971631871e-6 
-2.1885584002631917e-6 
2.4624239032078853e-5 
-2.5698981165484793e-5 
6.135202222818276e-5 
0.00018885654042100287 
0.00018984934126036287 
-8.631852617720694e-5 
-1.8190227944835901e-6 
3.5677122021929814e-6 
1.040257488673244e-7 
1.2315601018867827e-6 
5.438812893751778e-7 
-4.7089167843945656e-6 
2.7201799484802058e-6 
-3.204509097977462e-6 
-3.456744059629305e-6 
-2.4107428173975474e-5 
-0.00019373283766404854 
-0.0004347508333169533 
-1.1414589735486588e-5 
4.008379695741774e-6 
6.501260919699565e-6 
-8.230363278407204e-6 
9.230030637706434e-6 
2.933108963532838e-6 
-2.2430263464362306e-5 
-2.4066244611615126e-5 
-2.9491390444752047e-5 
0.0004680873281220282 
7.21924649446049e-7 
-1.4694392002146071e-7 