# vtk DataFile Version 3.0 
Unstructured Grid 
ASCII 
DATASET UNSTRUCTURED_GRID
POINTS 2173 float 
-0.5 -0.5 0  
0.5 -0.5 0  
0.5 0.5 0  
-0.5 0.5 0  
-0.475 -0.5 0  
-0.45 -0.5 0  
-0.425 -0.5 0  
-0.4 -0.5 0  
-0.375 -0.5 0  
-0.35 -0.5 0  
-0.325 -0.5 0  
-0.3 -0.5 0  
-0.275 -0.5 0  
-0.25 -0.5 0  
-0.225 -0.5 0  
-0.2 -0.5 0  
-0.175 -0.5 0  
-0.15 -0.5 0  
-0.125 -0.5 0  
-0.1 -0.5 0  
-0.075 -0.5 0  
-0.05 -0.5 0  
-0.025 -0.5 0  
-1.3761214e-12 -0.5 0  
0.025 -0.5 0  
0.05 -0.5 0  
0.075 -0.5 0  
0.1 -0.5 0  
0.125 -0.5 0  
0.15 -0.5 0  
0.175 -0.5 0  
0.2 -0.5 0  
0.225 -0.5 0  
0.25 -0.5 0  
0.275 -0.5 0  
0.3 -0.5 0  
0.325 -0.5 0  
0.35 -0.5 0  
0.375 -0.5 0  
0.4 -0.5 0  
0.425 -0.5 0  
0.45 -0.5 0  
0.475 -0.5 0  
0.5 -0.475 0  
0.5 -0.45 0  
0.5 -0.425 0  
0.5 -0.4 0  
0.5 -0.375 0  
0.5 -0.35 0  
0.5 -0.325 0  
0.5 -0.3 0  
0.5 -0.275 0  
0.5 -0.25 0  
0.5 -0.225 0  
0.5 -0.2 0  
0.5 -0.175 0  
0.5 -0.15 0  
0.5 -0.125 0  
0.5 -0.1 0  
0.5 -0.075 0  
0.5 -0.05 0  
0.5 -0.025 0  
0.5 -1.3761214e-12 0  
0.5 0.025 0  
0.5 0.05 0  
0.5 0.075 0  
0.5 0.1 0  
0.5 0.125 0  
0.5 0.15 0  
0.5 0.175 0  
0.5 0.2 0  
0.5 0.225 0  
0.5 0.25 0  
0.5 0.275 0  
0.5 0.3 0  
0.5 0.325 0  
0.5 0.35 0  
0.5 0.375 0  
0.5 0.4 0  
0.5 0.425 0  
0.5 0.45 0  
0.5 0.475 0  
0.475 0.5 0  
0.45 0.5 0  
0.425 0.5 0  
0.4 0.5 0  
0.375 0.5 0  
0.35 0.5 0  
0.325 0.5 0  
0.3 0.5 0  
0.275 0.5 0  
0.25 0.5 0  
0.225 0.5 0  
0.2 0.5 0  
0.175 0.5 0  
0.15 0.5 0  
0.125 0.5 0  
0.1 0.5 0  
0.075 0.5 0  
0.05 0.5 0  
0.025 0.5 0  
1.3761214e-12 0.5 0  
-0.025 0.5 0  
-0.05 0.5 0  
-0.075 0.5 0  
-0.1 0.5 0  
-0.125 0.5 0  
-0.15 0.5 0  
-0.175 0.5 0  
-0.2 0.5 0  
-0.225 0.5 0  
-0.25 0.5 0  
-0.275 0.5 0  
-0.3 0.5 0  
-0.325 0.5 0  
-0.35 0.5 0  
-0.375 0.5 0  
-0.4 0.5 0  
-0.425 0.5 0  
-0.45 0.5 0  
-0.475 0.5 0  
-0.5 0.475 0  
-0.5 0.45 0  
-0.5 0.425 0  
-0.5 0.4 0  
-0.5 0.375 0  
-0.5 0.35 0  
-0.5 0.325 0  
-0.5 0.3 0  
-0.5 0.275 0  
-0.5 0.25 0  
-0.5 0.225 0  
-0.5 0.2 0  
-0.5 0.175 0  
-0.5 0.15 0  
-0.5 0.125 0  
-0.5 0.1 0  
-0.5 0.075 0  
-0.5 0.05 0  
-0.5 0.025 0  
-0.5 1.3761214e-12 0  
-0.5 -0.025 0  
-0.5 -0.05 0  
-0.5 -0.075 0  
-0.5 -0.1 0  
-0.5 -0.125 0  
-0.5 -0.15 0  
-0.5 -0.175 0  
-0.5 -0.2 0  
-0.5 -0.225 0  
-0.5 -0.25 0  
-0.5 -0.275 0  
-0.5 -0.3 0  
-0.5 -0.325 0  
-0.5 -0.35 0  
-0.5 -0.375 0  
-0.5 -0.4 0  
-0.5 -0.425 0  
-0.5 -0.45 0  
-0.5 -0.475 0  
-0.002115384 -0.00023065208 0  
-0.20714286 -0.20714286 0  
0.20714286 -0.20714286 0  
0.20714286 0.20714286 0  
-0.20714286 0.20714286 0  
-0.28155318 -0.0017231192 0  
0.0017231192 -0.28155318 0  
0.28155318 0.0017231192 0  
-0.0017231192 0.28155318 0  
0.3319978 -0.33098683 0  
0.33098683 0.3319978 0  
-0.3319978 0.33098683 0  
-0.33098683 -0.3319978 0  
-0.14015679 -0.06698606 0  
0.06698606 -0.14015679 0  
0.14015679 0.06698606 0  
-0.06698606 0.14015679 0  
-0.1387125 -0.34573975 0  
0.34573975 -0.1387125 0  
0.1387125 0.34573975 0  
-0.34573975 0.1387125 0  
0.14046866 -0.34602854 0  
0.34602854 0.14046866 0  
-0.14046866 0.34602854 0  
-0.34602854 -0.14046866 0  
-0.05869875 -0.16617337 0  
0.18217777 -0.061504476 0  
0.062312964 0.18362015 0  
-0.18362015 0.062312964 0  
-0.034321424 -0.38563195 0  
0.38563195 -0.034321424 0  
0.034321424 0.38563195 0  
-0.38563195 0.034321424 0  
0.39586002 -0.2428538 0  
0.2428538 0.39586002 0  
-0.39586002 0.2428538 0  
-0.2428538 -0.39586002 0  
0.23688246 -0.38952246 0  
0.38952246 0.23688246 0  
-0.23688246 0.38952246 0  
-0.38952246 -0.23688246 0  
-0.24287231 -0.09948847 0  
0.09948847 -0.24287231 0  
0.24287231 0.09948847 0  
-0.09948847 0.24287231 0  
-0.11560815 -0.24300627 0  
0.24300627 -0.11560815 0  
0.11560815 0.24300627 0  
-0.24300627 0.11560815 0  
-0.40192315 -0.4008276 0  
0.4008276 -0.40192315 0  
0.40192315 0.4008276 0  
-0.4008276 0.40192315 0  
0.06409326 -0.40289903 0  
0.40289903 0.06409326 0  
-0.06409326 0.40289903 0  
-0.40289903 -0.06409326 0  
0.2962961 -0.23982804 0  
0.23982804 0.2962961 0  
-0.2962961 0.23982804 0  
-0.23982804 -0.2962961 0  
-0.28087237 -0.21196799 0  
0.21196799 -0.28087237 0  
0.28087237 0.21196799 0  
-0.21196799 0.28087237 0  
-0.0901279 0.007867504 0  
-0.05002927 -0.07494272 0  
0.0873353 -0.009871756 0  
0.0071518295 0.09216282 0  
-0.14120433 -0.1484696 0  
-0.14581114 0.13960092 0  
0.1458264 -0.14505939 0  
0.13960092 0.14581114 0  
0.41838804 -0.3182741 0  
0.3182741 0.41838804 0  
-0.41838804 0.3182741 0  
-0.3182741 -0.41838804 0  
0.32118136 -0.41712493 0  
0.41712493 0.32118136 0  
-0.32118136 0.41712493 0  
-0.41712493 -0.32118136 0  
-0.19707234 -0.014843048 0  
0.018050108 -0.20183705 0  
0.19707234 0.014843048 0  
-0.014843048 0.19707234 0  
-0.10938372 -0.41847488 0  
0.41847488 -0.10938372 0  
0.10938372 0.41847488 0  
-0.41847488 0.10938372 0  
0.15773043 -0.4267032 0  
0.4267032 0.15773043 0  
-0.15773043 0.4267032 0  
-0.4267032 -0.15773043 0  
-0.3204562 -0.07174808 0  
0.07174808 -0.3204562 0  
0.3204562 0.07174808 0  
-0.07174808 0.3204562 0  
0.02801032 -0.07269879 0  
-0.31817523 0.069836795 0  
-0.069836795 -0.31817523 0  
0.31817523 -0.069836795 0  
0.069836795 0.31817523 0  
0.43106207 -0.17757268 0  
0.17757268 0.43106207 0  
-0.43106207 0.17757268 0  
-0.17757268 -0.43106207 0  
0.0703783 0.071201205 0  
-0.051593844 0.064346604 0  
0.099701226 -0.08333426 0  
0.2863281 -0.17248559 0  
0.17248559 0.2863281 0  
-0.2863281 0.17248559 0  
-0.17248559 -0.2863281 0  
-0.2341888 0.04979648 0  
-0.049194112 -0.231281 0  
0.23358595 -0.04946041 0  
0.04979648 0.2341888 0  
-0.009939441 -0.13691185 0  
-0.26560438 -0.17864102 0  
0.17864102 -0.26560438 0  
0.26560438 0.17864102 0  
-0.17864102 0.26560438 0  
0.013302229 -0.43510666 0  
0.43510666 0.013302229 0  
-0.013302229 0.43510666 0  
-0.43510666 -0.013302229 0  
0.09432827 0.114700764 0  
-0.11539384 0.093188405 0  
-0.3413634 -0.005100272 0  
0.005100272 -0.3413634 0  
0.3413634 0.005100272 0  
-0.005100272 0.3413634 0  
-0.19817708 -0.3508856 0  
0.3508856 -0.19817708 0  
0.19817708 0.3508856 0  
-0.3508856 0.19817708 0  
-0.34100306 -0.27216324 0  
0.27216324 -0.34100306 0  
0.34100306 0.27216324 0  
-0.27216324 0.34100306 0  
-0.20269383 -0.14403741 0  
0.14393912 -0.2028372 0  
0.2026342 0.14393856 0  
-0.14393856 0.2026342 0  
-0.1030633 -0.10524017 0  
-0.4394695 -0.104853734 0  
0.104853734 -0.4394695 0  
0.4394695 0.104853734 0  
-0.104853734 0.4394695 0  
-0.44156647 -0.44156647 0  
0.44156647 -0.44156647 0  
0.44156647 0.44156647 0  
-0.44156647 0.44156647 0  
-0.2683254 -0.44465622 0  
0.44465622 -0.2683254 0  
0.2683254 0.44465622 0  
-0.44465622 0.2683254 0  
0.2654342 -0.4435478 0  
0.4435478 0.2654342 0  
-0.2654342 0.4435478 0  
-0.4435478 -0.2654342 0  
-0.27373606 -0.34534052 0  
0.34534052 -0.27373606 0  
0.27373606 0.34534052 0  
-0.34534052 0.27373606 0  
-0.05307205 -0.4481981 0  
0.4481981 -0.05307205 0  
0.05307205 0.4481981 0  
-0.4481981 0.05307205 0  
-0.35614902 -0.19390328 0  
0.19390328 -0.35614902 0  
0.35614902 0.19390328 0  
-0.19390328 0.35614902 0  
-0.14022674 -0.012452113 0  
0.14171903 0.011271359 0  
-0.01125192 0.14089845 0  
-0.19556868 -0.06932378 0  
0.070511825 -0.19668652 0  
0.19556868 0.06932378 0  
-0.06932378 0.19556868 0  
-0.24951252 -0.039742906 0  
0.04037078 -0.2503529 0  
0.24951252 0.039742906 0  
-0.039742906 0.24951252 0  
0.44100407 -0.36164257 0  
0.36164257 0.44100407 0  
-0.44100407 0.36164257 0  
-0.36164257 -0.44100407 0  
-0.4451273 -0.36589316 0  
0.36589316 -0.4451273 0  
0.4451273 0.36589316 0  
-0.36589316 0.4451273 0  
0.1121834 -0.30242515 0  
0.30242515 0.1121834 0  
-0.1121834 0.30242515 0  
-0.30242515 -0.1121834 0  
-0.115146436 -0.19087775 0  
0.19190264 -0.11309679 0  
0.11520548 0.19263776 0  
-0.19263776 0.11520548 0  
-0.08287991 -0.37025127 0  
0.37025127 -0.08287991 0  
0.08287991 0.37025127 0  
-0.37025127 0.08287991 0  
0.23791528 -0.24381089 0  
0.24381089 0.23791528 0  
-0.23791528 0.24381089 0  
-0.24381089 -0.23791528 0  
-0.44626984 -0.21174923 0  
0.21174923 -0.44626984 0  
0.44626984 0.21174923 0  
-0.21174923 0.44626984 0  
0.35174853 -0.37705234 0  
0.37705234 0.35174853 0  
-0.35174853 0.37705234 0  
-0.37705234 -0.35174853 0  
-0.048605647 -0.023262763 0  
-0.1551113 -0.21381997 0  
0.21381997 -0.1551113 0  
0.1551113 0.21381997 0  
-0.21381997 0.1551113 0  
-0.29403278 -0.30027482 0  
0.30027482 -0.29403278 0  
0.29403278 0.30027482 0  
-0.30027482 0.29403278 0  
0.12173745 -0.390654 0  
0.390654 0.12173745 0  
-0.12173745 0.390654 0  
-0.390654 -0.12173745 0  
-0.12236246 -0.2979882 0  
0.2979882 -0.12236246 0  
0.12236246 0.2979882 0  
-0.2979882 0.12236246 0  
-0.0945969 -0.046371013 0  
0.035276897 -0.027358124 0  
-0.0076714605 0.051946 0  
-0.30809116 -0.17165439 0  
0.17165439 -0.30809116 0  
0.30809116 0.17165439 0  
-0.17165439 0.30809116 0  
-0.16592422 -0.10879113 0  
0.10700909 -0.1687818 0  
0.16864619 0.10664837 0  
-0.10664837 0.16864619 0  
-0.16784625 -0.38069874 0  
0.38069874 -0.16784625 0  
0.16784625 0.38069874 0  
-0.38069874 0.16784625 0  
-0.4563872 -0.05993889 0  
0.05993889 -0.4563872 0  
0.4563872 0.05993889 0  
-0.05993889 0.4563872 0  
0.31103167 -0.37412483 0  
0.37412483 0.31103167 0  
-0.31103167 0.37412483 0  
-0.37412483 -0.31103167 0  
-0.3909646 -0.012754724 0  
0.012754724 -0.3909646 0  
0.3909646 0.012754724 0  
-0.012754724 0.3909646 0  
0.44915667 -0.21679194 0  
0.21679194 0.44915667 0  
-0.44915667 0.21679194 0  
-0.21679194 -0.44915667 0  
0.045831423 0.12033131 0  
-0.12662303 0.045442794 0  
-0.3107799 -0.37355793 0  
0.37355793 -0.3107799 0  
0.3107799 0.37355793 0  
-0.37355793 0.3107799 0  
0.04152367 0.021693805 0  
-0.08040017 -0.2675595 0  
0.26794365 -0.08044455 0  
0.080500565 0.2680441 0  
-0.2680441 0.080500565 0  
-0.13753757 -0.45578164 0  
0.45578164 -0.13753757 0  
0.13753757 0.45578164 0  
-0.45578164 0.13753757 0  
-0.05507968 -0.12135967 0  
0.14172421 -0.09428923 0  
0.2571752 -0.19664502 0  
[...]
POINT_DATA 2173 
SCALARS T float 
LOOKUP_TABLE default 
1.620978101121015e-27 
7.3714294995921736e-37 
4.28787811860923e-31 
-1.8556161799954482e-23 
-5.826511533101725e-27 
2.652901820532677e-26 
-3.142127961524549e-26 
-1.3950500958455923e-26 
6.376340810397625e-27 
1.371080488200948e-26 
6.699837410801382e-26 
-2.3546878634725387e-26 
-5.042598872732339e-25 
1.7043216647724625e-24 
1.3022699827100809e-24 
8.36001691158607e-27 
-2.4234593277182763e-26 
1.215635048243583e-26 
9.675752283396404e-27 
2.1474257136838793e-27 
3.9700138742076827e-29 
3.6667287462927294e-30 
-4.4839978556989497e-29 
7.070116807434439e-29 
-3.4729335324198894e-30 
7.01710353585738e-29 
3.1964353619804426e-29 
-9.884603345396693e-29 
4.400076509484347e-31 
4.821873840312571e-32 
-1.8698361623001761e-31 
2.2916501289666603e-32 
-2.6571410713993617e-31 
-5.904380539748913e-32 
-3.8599655495030185e-32 
-1.0024937012420887e-32 
3.399864513460036e-33 
1.2483809892281367e-34 
-1.0814264211672296e-34 
1.214310634089022e-35 
-6.518764892386353e-35 
-8.654819067226938e-35 
1.5903931838252017e-36 
-5.416994530385753e-36 
-3.0492337726120444e-35 
3.711776134748642e-35 
7.620329088641369e-36 
-5.285569674828684e-35 
-1.2864191730401679e-33 
3.792249123826989e-33 
-1.2115158077412404e-32 
1.7292671549093076e-32 
-9.62488747218011e-33 
-3.9927677822021854e-33 
-7.072237702159402e-34 
-9.266787967042549e-33 
2.1124975716719225e-32 
1.807527155609182e-32 
-2.590543317481914e-32 
-4.67891754833912e-32 
1.6958047993324381e-31 
6.880328384733005e-32 
1.3327910224226747e-31 
2.252926168613415e-31 
-8.691840134987582e-31 
1.8321033108093956e-30 
1.1476841803136345e-31 
1.42230770280768e-30 
-5.502192963753072e-30 
5.322597325581598e-30 
-1.4533653712068778e-29 
3.3383561672563414e-29 
1.014564933503446e-28 
6.399985543874813e-29 
1.2142310056772053e-29 
1.1144002596000263e-30 
4.6334272438574756e-30 
2.946587921638573e-30 
7.6015634560732135e-31 
3.802105128364128e-30 
-1.419112266713865e-30 
1.2008049008042212e-30 
-2.0083583169272213e-30 
-9.215346095509106e-30 
1.0281968409266124e-29 
1.8693801526991393e-30 
-2.5564778794194775e-29 
3.1232860734114286e-28 
-1.965781587677393e-27 
1.2016537297393297e-26 
-5.518465070622424e-26 
1.579190151497959e-25 
-2.2612851575800555e-25 
2.510501616580246e-25 
-8.506388522298567e-25 
2.273016351400118e-24 
-3.575318081164659e-25 
-4.3544238824923345e-24 
8.948548802190857e-24 
-1.3632455152007811e-24 
5.3827789735715296e-24 
-5.122099658644718e-24 
-9.314145750352896e-23 
3.7803052486416215e-22 
-1.1489355044105395e-21 
4.2185304255959464e-21 
2.2445828432635323e-21 
1.2882181413675852e-21 
2.6700509295037486e-21 
-4.175294472600164e-21 
5.668192162669797e-21 
3.2342267112623213e-20 
2.6445547737815836e-20 
8.783546974441781e-21 
9.72815928774775e-22 
4.752435300975316e-21 
1.2079121991739835e-21 
-2.0940849059698675e-22 
8.765054869536802e-22 
1.4017719924646324e-21 
-2.6033545706235478e-23 
1.0650844243684632e-22 
4.735842005163043e-22 
-6.356283306336455e-22 
-1.2669730856060967e-22 
1.182862585264147e-21 
3.352441457777457e-20 
-9.813284862178438e-20 
3.29951667684273e-19 
-6.04406807521551e-19 
4.618885256218359e-19 
-7.06692574299975e-21 
1.47299898898657e-18 
-1.2814826432428122e-18 
2.5703661984895697e-18 
-1.218391353635559e-17 
2.2000123404794027e-17 
-2.1688727950790323e-17 
1.661040570543993e-17 
2.5325761455071885e-19 
-2.2629352970572654e-18 
3.578135066846009e-19 
3.00619430597147e-18 
-9.447729357134615e-18 
9.355103569198431e-18 
8.252135854941445e-19 
1.1155205834559593e-20 
1.7329958849274763e-19 
-6.401711299559574e-20 
-1.272145667697086e-19 
-5.56383500976993e-20 
-1.230956735756902e-20 
4.224687384121106e-22 
7.222676363826403e-22 
7.343640651178403e-23 
-2.1057921935037073e-24 
4.706182397065179e-25 
5.794286799577459e-25 
1.951288110972504e-25 
-7.481507818051593e-27 
2.421528973020534e-7 
0.0001600899545116969 
-3.044908474632388e-16 
-4.2563513565533787e-13 
0.000126968042117319 
0.6643376135643091 
-6.538664679577734e-12 
4.215477027509853e-15 
-2.857356745749803e-10 
-7.769677621870257e-20 
4.589869618392763e-16 
6.876379409235281e-7 
3.1513366782764337e-10 
0.0328578700568436 
1.469131108111731e-11 
-2.253173511303575e-11 
-4.163553486845156e-6 
-5.516569879248196e-12 
-3.410078671019175e-17 
8.113694426004848e-12 
0.0004025428499070881 
3.568836517746498e-16 
-1.2622573251017938e-15 
3.438210710547711e-7 
0.003285908726040132 
5.99597397880339e-7 
-4.258179103228406e-13 
-1.2505890866569603e-9 
0.05218291354373001 
-1.9834135755725785e-13 
8.663875940892423e-18 
2.1034185440329793e-9 
0.003238684835724185 
-1.981556982386605e-19 
1.3814256163749879e-13 
1.4551512319437858e-6 
-4.974679160863849e-11 
-1.3567395824571828e-18 
6.232508276737816e-16 
1.7838673858907406e-7 
-9.683077027172915e-8 
0.25798072934665456 
-3.711274393417343e-13 
2.521123731886766e-14 
-8.419333780089476e-7 
2.891887657473742e-8 
-2.6635696360287824e-15 
2.999035638130322e-11 
0.006513364081989227 
1.8143953147359766e-12 
-1.220649472364228e-21 
1.246244089547488e-17 
1.6623947530658558e-8 
1.8836689326446032e-15 
1.8569657238457542e-17 
-2.2282727310821493e-9 
0.001577959042432174 
-1.1833177146750297e-18 
7.661498679643089e-14 
2.8068604694250428e-5 
1.355154123932501e-8 
0.00014010999340769445 
1.7542174994302043e-17 
-2.275997905962139e-14 
3.273684712534283e-6 
0.0014239023462856075 
2.8429041559479997e-5 
3.445209734570182e-10 
-7.721375207839932e-8 
0.0012975681522956759 
0.00013965541294955864 
-2.7008765771760923e-14 
-2.647429482998333e-12 
-2.0054768643824148e-20 
-2.6437417412411663e-16 
2.661271541709575e-7 
8.415638898597424e-13 
7.940004919158884e-21 
1.2965902199427966e-17 
1.1824427011516023e-8 
4.478024486831563e-10 
0.4970493246283168 
1.1318475901111904e-10 
6.561615090400221e-13 
-5.42276763916466e-9 
1.203927639298212e-13 
1.805559441350267e-18 
7.512903422246865e-11 
-0.000228722397067566 
-1.100297705273594e-17 
-4.062520782744802e-18 
2.724533806316927e-8 
3.2648037847457454e-6 
0.1647563199801398 
-2.982388551295959e-14 
-3.969940715343429e-17 
1.5162545995589855e-7 
3.1035959417801427e-9 
0.03882177782710189 
9.413839806608779e-11 
1.2341513043285267e-16 
9.970901238762453e-11 
2.7977245857761826e-19 
3.191184752586088e-12 
-3.4418407855894916e-6 
-3.9645125950162584e-13 
-2.524992145118018e-10 
5.619313463473879e-6 
-1.2681202571276612e-11 
-1.6419943060446372e-16 
-8.390974348410486e-13 
0.00020331353515473994 
2.71422570349608e-9 
0.23330035672645047 
5.831823543611129e-9 
1.000627960713219e-13 
1.2347282183180884e-9 
1.9255431835159363e-8 
0.003201054893946996 
-1.2822206416219145e-16 
4.5536340603916654e-14 
1.052701264750783e-5 
2.978018000911118e-16 
1.550613818982106e-18 
-1.2238153262803256e-10 
0.0001512169074051109 
-1.7131102793204422e-10 
0.0003906370625479261 
0.10503289834002293 
5.975843793005451e-13 
4.358348512182441e-16 
5.926901475651766e-9 
2.2624674497431694e-11 
-6.45741153247858e-19 
1.2665537138327545e-13 
5.66783028937912e-5 
7.423361120563928e-10 
-3.8661918325719203e-19 
2.4069726975031358e-15 
7.158751962144351e-7 
0.018966569034170565 
-2.1849377274534505e-14 
-1.5578357339992542e-13 
6.606130586626548e-5 
0.000970883297200178 
1.854337527468896e-5 
1.2102298209589992e-17 
-3.578459661856416e-18 
1.3522762069099507e-9 
-5.703522631089218e-14 
-9.02599091195999e-23 
-8.625725300905432e-18 
1.7861251676249387e-9 
-1.282549513027096e-12 
-2.1156766560888316e-20 
-1.0318369761260119e-14 
3.9254588470012763e-7 
-3.362351180569123e-20 
4.7660350632302213e-17 
2.2202262291753398e-8 
5.5749480228030455e-11 
4.5910018456615555e-10 
-1.404941520769275e-18 
2.1934774653491683e-14 
8.890693195131578e-6 
-7.811543032044568e-16 
1.6951433393192641e-19 
-3.024577261477864e-11 
-1.210438423006469e-6 
3.280953556822468e-5 
-7.10646452650062e-17 
-6.686898108300299e-16 
2.6628278996163765e-7 
0.05114623068604695 
3.4353272695843374e-11 
-1.8540719074669966e-7 
0.30197702957625444 
-7.002917155050637e-13 
-3.2162369462642407e-13 
1.0874173811726656e-6 
0.9553337462246638 
-1.3854383277098928e-12 
1.5522045784028593e-14 
-1.1865800005536924e-7 
-1.490612559487831e-21 
-3.182980421312703e-16 
1.8348273241575726e-8 
4.954650087661255e-13 
2.25747017201507e-11 
3.18904535370364e-22 
-7.602891036494421e-19 
5.774617571772909e-10 
-1.556345978632549e-14 
-6.141888945675589e-15 
1.3391954366010482e-6 
0.07115153841848834 
9.514923706636635e-6 
-6.746004245487063e-14 
-1.062620896988186e-10 
0.005523571100087505 
2.542404205433219e-12 
3.0480988725758774e-18 
1.959327354143211e-10 
0.0004342732058552006 
-8.02828131482008e-18 
5.713456596343091e-14 
1.8299303132332026e-5 
1.001810023824492e-5 
-1.5356771183729164e-7 
-4.484063295742439e-19 
-5.490464441353245e-18 
-2.406676707228117e-9 
4.680337275306214e-21 
6.46442831429557e-17 
-2.732756931295148e-8 
4.930302427781023e-11 
4.555346965885118e-5 
1.6116035658037053e-5 
2.6720236361343413e-16 
1.7600176626780321e-12 
0.0010471341275642134 
6.077475405144805e-10 
4.697927242247235e-19 
2.2938766828776294e-17 
1.369381508200476e-7 
-1.7404025832569777e-16 
-6.439635584102939e-17 
9.426539298781562e-9 
0.0006277756145240516 
-4.179096572413382e-10 
-5.131852462126159e-16 
2.785556313175521e-11 
0.005249964617650722 
0.0024964761594871354 
4.018725130853722e-9 
3.4954254203784443e-7 
0.0019820507243608707 
-9.958199452016418e-16 
-2.3848685373883252e-15 
2.046013554431129e-6 
0.03277973795539207 
1.0913396022726316e-13 
-2.876699562440566e-12 
-2.264284430371563e-6 
-3.6190697114046332e-12 
-3.277826905463311e-18 
-1.1008386245716844e-12 
0.00013994793527259184 
9.24371861412883e-6 
1.6103532902196515e-16 
-4.597830908407382e-19 
-4.6937719858939227e-11 
1.3946779967288028e-20 
1.3315654175548366e-16 
6.505161008610785e-8 
-1.4535357947923745e-9 
0.006438865143015777 
5.32017072472114e-15 
2.037748670843984e-17 
8.281022707735624e-10 
-2.4565888750498277e-20 
1.7614152462265167e-13 
9.80885227610382e-7 
-9.093059371794483e-13 
-1.144287880220222e-8 
0.006974211386081546 
4.271415061333345e-11 
-1.0534592633979275e-20 
5.498259665406112e-15 
-1.056923746258996e-7 
1.0003518140022527e-8 
1.5928254605760717e-9 
4.527154406651183e-15 
2.862840639470257e-10 
0.05800666223891439 
1.1071868906487392e-14 
9.668459661993076e-20 
6.922232348617699e-12 
-1.5140249609931232e-5 
9.425458921507147e-6 
-8.16240382537078e-13 
1.3910343367982323e-16 
2.30721262369689e-12 
0.0001216286758526844 
5.491740002763879e-7 
-3.896118673437539e-12 
5.843324276496317e-7 
1.6673645833104053e-11 
-9.114216662363301e-21 
7.622820168119087e-16 
7.292473240193919e-8 
1.8638986700899418e-22 
-1.7575834281730565e-15 
-2.890955715455729e-8 
-2.6268595181769474e-14 
-6.156958579605018e-22 
1.2994736654499864e-18 
4.760224120762264e-10 
1.8738257913881943e-11 
-6.798530259512739e-11 
-1.0940697747264115e-6 
0.4292033496763718 
8.542758899666613e-14 
1.0959198589938236e-15 
-3.680611055703564e-7 
2.6879455661653877e-5 
-2.579939986498871e-12 
2.892140787126874e-7 
4.0750454679993266e-9 
8.269035687695265e-13 
-9.779794500591225e-9 
0.29703230231705197 
0.749264665543266 
3.0930553853906155e-10 
-6.5728920944821245e-15 
8.685477431146792e-9 
-2.80032681947814e-7 
-4.1234680601401634e-19 
-4.162754965244104e-18 
1.7804086379880891e-9 
-7.793086219819562e-11 
3.0343499782346907e-10 
2.3037797654490378e-17 
-2.0015305215070533e-16 
7.836359137368957e-8 
9.651408977430454e-5 
5.865730625197298e-5 
-1.360486677556842e-19 
1.675496680157534e-14 
1.3427143118030952e-6 
2.7107982329946138e-11 
0.03781571850918535 
2.366772072651336e-12 
-7.079150445659572e-17 
-3.358096678266866e-10 
2.3644125491259248e-15 
-9.505392220737405e-20 
-2.2203449470513305e-13 
1.4265247310236094e-5 
1.075642751374317e-14 
1.6105672438166763e-17 
2.651316763158279e-8 
0.06357325679680374 
0.021673551848573204 
6.085305665745419e-16 
2.0663578334961844e-16 
-1.1044321083107807e-8 
0.0008039489817521492 
8.878219709555359e-5 
-7.370615128114513e-15 
-7.679458152931632e-12 
8.274717629035893e-20 
8.308045958052246e-17 
6.977589341048449e-8 
-3.0348858074098584e-10 
5.332682791209529e-13 
5.316469340476241e-18 
-1.1729576738817071e-11 
0.00040305739969282323 
4.611159764605314e-16 
1.270954765189084e-19 
1.4212536167329922e-11 
9.574680666588989e-6 
1.2398274585095162e-6 
-4.482326285477433e-19 
7.678310769862868e-17 
1.0514231791188027e-7 
-1.0891014103053438e-22 
-2.74204081645674e-17 
1.4051154811901828e-9 
6.917368056676915e-14 
-2.2589187761828455e-23 
1.87456661800669e-18 
2.916183920261174e-10 
2.6484638750074616e-13 
0.231767262720984 
4.1732596301130747e-11 
-3.2285968665268306e-15 
1.214031145379574e-10 
0.19700990874525828 
-1.8615306728075392e-12 
-4.58487029437717e-7 
3.7474277691079734e-10 
0.0021079303777242625 
0.43499670531691026 
-1.4312175593891438e-12 
1.0999414221608054e-15 
-5.227693412374162e-8 
9.746610397397821e-5 
2.4873239042187236e-14 
-1.9158781567879676e-18 
1.623798866074376e-10 
1.152826081101977e-11 
0.00043784434754462156 
-3.67169694522385e-17 
7.428137527308923e-18 
-1.5147901328873397e-6 
8.652967903336057e-22 
1.502793477097148e-14 
-1.638202199953125e-6 
5.1499811751316015e-14 
1.5636735494561078e-9 
0.10426940264732473 
1.2902109247277715e-14 
-4.913880331612533e-13 
1.7044705522872452e-5 
1.155568556394062e-16 
3.2513663383678894e-19 
-9.707387564613663e-11 
-3.928179211728404e-6 
9.134609183139072e-17 
1.77494273806341e-11 
0.0005334433010545167 
1.9980388513643418e-7 
-2.1877367706452405e-10 
1.0945888915557132e-5 
2.468988524014281e-18 
3.560263690758038e-14 
5.854563405349186e-6 
9.096585281004472e-7 
0.00284677170025084 
-7.1615436198662145e-12 
5.331356104365611e-17 
2.49659031944364e-11 
8.786552579000188e-6 
-1.154898485371697e-17 
1.2966499119691186e-15 
8.06826864375152e-7 
1.1142041521882802e-7 
-1.36250996843687e-14 
-1.1515788547039958e-10 
0.041333298201369606 
-3.803962932577672e-18 
5.1773299641475854e-14 
4.0583452359145924e-5 
4.3010540275415424e-11 
-4.407439519875211e-13 
-4.349789273147924e-19 
4.598933528609049e-13 
1.3569727166384207e-7 
9.71589052949129e-11 
-2.2608853081915923e-17 
1.2591659153108722e-12 
-6.292916855278412e-6 
1.857069898191359e-10 
-3.4635883153465025e-17 
2.63638880015968e-13 
0.0001155418887839003 
5.2090854218018966e-11 
-1.4711980267510045e-5 
1.9226377326549318e-18 
1.2448732434276344e-18 
1.1517738714348702e-9 
1.2026632371221236e-6 
-5.8194275602363155e-15 
-9.016994936247875e-24 
-1.8070175513427054e-18 
1.8245123543327886e-10 
0.03185538430906873 
-2.4307366353404613e-15 
-1.0039523267830357e-13 
1.1585168137547903e-5 
0.09812515502500223 
4.047425455407626e-12 
4.262241629727707e-9 
0.0002338624204642042 
1.3891747509239381e-9 
3.3515991759374656e-13 
1.741814770048354e-18 
9.464052525172029e-12 
-3.3849264507473596e-5 
3.6907825903810165e-9 
8.069686962701282e-12 
1.3452325436220931e-21 
3.466476316013823e-17 
-7.180548508880286e-9 
4.811738528578121e-16 
5.615460918582076e-14 
4.665992328091622e-5 
0.0032034756933343295 
3.7309635643333584e-15 
2.907154783425917e-18 
-2.2063973689992588e-10 
0.00028104022193920023 
0.00012583485179196635 
1.4306186018170682e-5 
0.0001187656318862693 
-3.181701072004328e-15 
6.771512844530331e-15 
1.4160357653574335e-14 
-7.684479110965531e-12 
9.33923010636569e-12 
3.195364876371355e-11 
0.00023594758494428566 
-0.00012188038140943509 
-9.322690974472307e-5 
-8.463014803686858e-11 
4.2164103035461044e-8 
1.2393321179495217e-9 
-3.6131074749702455e-13 
3.5816214973004825e-13 
2.9837140806917256e-14 
6.607477595988965e-10 
1.0334040264388834e-9 
-6.003500322970548e-10 
0.28849421095834066 
0.13875212778788829 
0.13247348189460234 
0.0010542271444183163 
0.00013503878735244502 
0.00038807397172014945 
0.00012969637074378363 
1.0406943609005356e-14 
-4.5390281154262676e-15 
-9.197896242822191e-13 
-2.453939958889563e-11 
0.11152631125765672 
0.05773966985878395 
7.719540080522556e-10 
3.833897209588897e-7 
-4.223448358997334e-14 
8.684874149020969e-14 
-1.3653330430353505e-10 
4.333662735650144e-10 
-1.8012308485878057e-9 
2.0275792837691562e-9 
4.65580972759711e-9 
0.03736571645195767 
0.007572907247622431 
0.006803959042960078 
0.0014970653351207778 
0.007291381708107853 
1.1199404501476607e-11 
-3.0179381227813745e-12 
1.00423652832813e-11 
8.244871536907366e-20 
3.0087934080738574e-20 
-1.2560481881786902e-19 
4.434148932923522e-14 
-5.0214146865875814e-15 
-1.9925177274335541e-13 
-1.158358065272639e-6 
-8.204833015391019e-7 
2.6320987455695413e-6 
1.4211033639728177e-12 
-1.8355783028663058e-13 
7.435686109742569e-23 
-5.013328429520545e-24 
-7.845613166279203e-19 
-2.0451759968206935e-19 
-7.102924860035122e-10 
7.290829524234888e-11 
2.1702726666464604e-14 
-2.323627221180538e-15 
4.9513150364827584e-23 
-9.181078726808579e-24 
2.3986174800930508e-17 
-3.976375339387805e-18 
-1.32645413243231e-9 
2.396019267324943e-10 
0.4534581081070314 
0.21937552616363018 
0.3163634526297886 
8.861427797076308e-12 
1.1741296690149405e-13 
-2.3691837477370717e-12 
2.412690243786907e-15 
5.887044902441758e-17 
-1.5706914298875802e-15 
1.1575453060509128e-9 
-2.192426843946204e-9 
1.3360014663414766e-9 
6.317455557114776e-21 
3.4163085430676415e-21 
-2.8722146748334793e-21 
-5.31042198305716e-15 
4.241936546888461e-15 
1.1869241164974109e-15 
-2.006164551394913e-7 
-3.567603592810992e-8 
8.53571091987911e-8 
-3.993958208315224e-14 
2.866664028174153e-13 
-2.745699427173744e-14 
-2.9819159048628673e-21 
5.882774292771199e-21 
4.603490583927244e-21 
7.274513454531423e-19 
-4.504157532088214e-18 
-7.062095198050422e-18 
-3.791443005791402e-10 
2.4990630361327e-10 
-4.1721163082814915e-9 
-5.202978499595687e-10 
8.832677570197954e-11 
-1.0847560219488703e-9 
6.322278647724836e-13 
-7.342754573407333e-21 
2.0745445561819637e-14 
3.1911243795418717e-7 
1.6882009361832954e-20 
-2.0643276007840382e-17 
-8.16076304999014e-9 
5.3073787383755224e-9 
-1.5775090379383603e-19 
1.1307508363132722e-19 
6.083227060262337e-17 
-1.1094865888640799e-17 
1.6584746071434184e-8 
-2.2983993504036274e-9 
-3.982511224770344e-8 
2.9119662804624426e-8 
0.010042603611820734 
0.01398336418751776 
0.002285769608334972 
-7.802712777584071e-12 
-2.1435031444393923e-12 
-1.406573821839801e-22 
-1.991842706932117e-22 
-2.626302148949436e-19 
1.2647367762987641e-18 
-9.540411599293476e-10 
2.315932607973499e-9 
-1.7178763535012355e-14 
-2.0482581316464715e-13 
-3.3406083891220443e-22 
4.1414673091346927e-22 
-1.3503794953005332e-16 
9.864581685124976e-17 
6.940439830884265e-9 
-5.227756511243035e-9 
0.12115703073417813 
0.07449316347678023 
-1.0776949035967338e-11 
8.627902257222612e-14 
6.109836550581587e-16 
-2.0407191213695079e-16 
9.808183464837921e-10 
-5.34364584812099e-10 
2.484670823969e-8 
1.7669857666256032e-8 
-2.6773420710107453e-8 
-2.9348791191285953e-19 
1.450362706066155e-19 
-7.70710839734088e-20 
4.3583925497753224e-16 
-3.9921297334541083e-16 
-1.5712359028433176e-15 
1.4471214500459285e-7 
-1.8580490972639047e-7 
-4.232610134391614e-7 
-9.103937222918495e-9 
-8.772214365517646e-10 
2.1668961380027778e-12 
-2.1050926114059607e-11 
2.479342237108067e-19 
2.5632619607170767e-19 
7.260329554897958e-13 
-3.334651275132769e-13 
-8.865356905531773e-6 
5.992309294256158e-7 
5.942339926872158e-17 
-7.830839975423852e-17 
1.0804046546757427e-17 
-1.5269272781040167e-18 
1.590206947290714e-17 
1.5605366057111383e-19 
-3.949960645181996e-9 
4.440738915694775e-10 
-7.110942737633123e-9 
5.0159517361644315e-5 
0.00019433239988613334 
2.502717019729293e-5 
4.813545215918527e-22 
-1.0816211569921205e-20 
4.354051852548866e-20 
-6.054988862689548e-17 
-1.981668705890915e-16 
5.45409797153321e-18 
-5.654027150077031e-8 
9.313147142514451e-8 
-3.336110820514858e-7 
-1.2685968512961717e-10 
2.96718986081227e-11 
-7.6255320642073e-11 
-8.456955801097421e-10 
5.737865115778223e-9 
-2.3821536608261145e-20 
-1.50973506961481e-20 
8.971320666808071e-17 
-3.42127825578137e-16 
-2.456748797837332e-8 
5.4223386947483953e-8 