# vtk DataFile Version 3.0 
Unstructured Grid 
ASCII 
DATASET UNSTRUCTURED_GRID
POINTS 2173 float 
-0.5 -0.5 0  
0.5 -0.5 0  
0.5 0.5 0  
-0.5 0.5 0  
-0.475 -0.5 0  
-0.45 -0.5 0  
-0.425 -0.5 0  
-0.4 -0.5 0  
-0.375 -0.5 0  
-0.35 -0.5 0  
-0.325 -0.5 0  
-0.3 -0.5 0  
-0.275 -0.5 0  
-0.25 -0.5 0  
-0.225 -0.5 0  
-0.2 -0.5 0  
-0.175 -0.5 0  
-0.15 -0.5 0  
-0.125 -0.5 0  
-0.1 -0.5 0  
-0.075 -0.5 0  
-0.05 -0.5 0  
-0.025 -0.5 0  
-1.3761214e-12 -0.5 0  
0.025 -0.5 0  
0.05 -0.5 0  
0.075 -0.5 0  
0.1 -0.5 0  
0.125 -0.5 0  
0.15 -0.5 0  
0.175 -0.5 0  
0.2 -0.5 0  
0.225 -0.5 0  
0.25 -0.5 0  
0.275 -0.5 0  
0.3 -0.5 0  
0.325 -0.5 0  
0.35 -0.5 0  
0.375 -0.5 0  
0.4 -0.5 0  
0.425 -0.5 0  
0.45 -0.5 0  
0.475 -0.5 0  
0.5 -0.475 0  
0.5 -0.45 0  
0.5 -0.425 0  
0.5 -0.4 0  
0.5 -0.375 0  
0.5 -0.35 0  
0.5 -0.325 0  
0.5 -0.3 0  
0.5 -0.275 0  
0.5 -0.25 0  
0.5 -0.225 0  
0.5 -0.2 0  
0.5 -0.175 0  
0.5 -0.15 0  
0.5 -0.125 0  
0.5 -0.1 0  
0.5 -0.075 0  
0.5 -0.05 0  
0.5 -0.025 0  
0.5 -1.3761214e-12 0  
0.5 0.025 0  
0.5 0.05 0  
0.5 0.075 0  
0.5 0.1 0  
0.5 0.125 0  
0.5 0.15 0  
0.5 0.175 0  
0.5 0.2 0  
0.5 0.225 0  
0.5 0.25 0  
0.5 0.275 0  
0.5 0.3 0  
0.5 0.325 0  
0.5 0.35 0  
0.5 0.375 0  
0.5 0.4 0  
0.5 0.425 0  
0.5 0.45 0  
0.5 0.475 0  
0.475 0.5 0  
0.45 0.5 0  
0.425 0.5 0  
0.4 0.5 0  
0.375 0.5 0  
0.35 0.5 0  
0.325 0.5 0  
0.3 0.5 0  
0.275 0.5 0  
0.25 0.5 0  
0.225 0.5 0  
0.2 0.5 0  
0.175 0.5 0  
0.15 0.5 0  
0.125 0.5 0  
0.1 0.5 0  
0.075 0.5 0  
0.05 0.5 0  
0.025 0.5 0  
1.3761214e-12 0.5 0  
-0.025 0.5 0  
-0.05 0.5 0  
-0.075 0.5 0  
-0.1 0.5 0  
-0.125 0.5 0  
-0.15 0.5 0  
-0.175 0.5 0  
-0.2 0.5 0  
-0.225 0.5 0  
-0.25 0.5 0  
-0.275 0.5 0  
-0.3 0.5 0  
-0.325 0.5 0  
-0.35 0.5 0  
-0.375 0.5 0  
-0.4 0.5 0  
-0.425 0.5 0  
-0.45 0.5 0  
-0.475 0.5 0  
-0.5 0.475 0  
-0.5 0.45 0  
-0.5 0.425 0  
-0.5 0.4 0  
-0.5 0.375 0  
-0.5 0.35 0  
-0.5 0.325 0  
-0.5 0.3 0  
-0.5 0.275 0  
-0.5 0.25 0  
-0.5 0.225 0  
-0.5 0.2 0  
-0.5 0.175 0  
-0.5 0.15 0  
-0.5 0.125 0  
-0.5 0.1 0  
-0.5 0.075 0  
-0.5 0.05 0  
-0.5 0.025 0  
-0.5 1.3761214e-12 0  
-0.5 -0.025 0  
-0.5 -0.05 0  
-0.5 -0.075 0  
-0.5 -0.1 0  
-0.5 -0.125 0  
-0.5 -0.15 0  
-0.5 -0.175 0  
-0.5 -0.2 0  
-0.5 -0.225 0  
-0.5 -0.25 0  
-0.5 -0.275 0  
-0.5 -0.3 0  
-0.5 -0.325 0  
-0.5 -0.35 0  
-0.5 -0.375 0  
-0.5 -0.4 0  
-0.5 -0.425 0  
-0.5 -0.45 0  
-0.5 -0.475 0  
-0.002115384 -0.00023065208 0  
-0.20714286 -0.20714286 0  
0.20714286 -0.20714286 0  
0.20714286 0.20714286 0  
-0.20714286 0.20714286 0  
-0.28155318 -0.0017231192 0  
0.0017231192 -0.28155318 0  
0.28155318 0.0017231192 0  
-0.0017231192 0.28155318 0  
0.3319978 -0.33098683 0  
0.33098683 0.3319978 0  
-0.3319978 0.33098683 0  
-0.33098683 -0.3319978 0  
-0.14015679 -0.06698606 0  
0.06698606 -0.14015679 0  
0.14015679 0.06698606 0  
-0.06698606 0.14015679 0  
-0.1387125 -0.34573975 0  
0.34573975 -0.1387125 0  
0.1387125 0.34573975 0  
-0.34573975 0.1387125 0  
0.14046866 -0.34602854 0  
0.34602854 0.14046866 0  
-0.14046866 0.34602854 0  
-0.34602854 -0.14046866 0  
-0.05869875 -0.16617337 0  
0.18217777 -0.061504476 0  
0.062312964 0.18362015 0  
-0.18362015 0.062312964 0  
-0.034321424 -0.38563195 0  
0.38563195 -0.034321424 0  
0.034321424 0.38563195 0  
-0.38563195 0.034321424 0  
0.39586002 -0.2428538 0  
0.2428538 0.39586002 0  
-0.39586002 0.2428538 0  
-0.2428538 -0.39586002 0  
0.23688246 -0.38952246 0  
0.38952246 0.23688246 0  
-0.23688246 0.38952246 0  
-0.38952246 -0.23688246 0  
-0.24287231 -0.09948847 0  
0.09948847 -0.24287231 0  
0.24287231 0.09948847 0  
-0.09948847 0.24287231 0  
-0.11560815 -0.24300627 0  
0.24300627 -0.11560815 0  
0.11560815 0.24300627 0  
-0.24300627 0.11560815 0  
-0.40192315 -0.4008276 0  
0.4008276 -0.40192315 0  
0.40192315 0.4008276 0  
-0.4008276 0.40192315 0  
0.06409326 -0.40289903 0  
0.40289903 0.06409326 0  
-0.06409326 0.40289903 0  
-0.40289903 -0.06409326 0  
0.2962961 -0.23982804 0  
0.23982804 0.2962961 0  
-0.2962961 0.23982804 0  
-0.23982804 -0.2962961 0  
-0.28087237 -0.21196799 0  
0.21196799 -0.28087237 0  
0.28087237 0.21196799 0  
-0.21196799 0.28087237 0  
-0.0901279 0.007867504 0  
-0.05002927 -0.07494272 0  
0.0873353 -0.009871756 0  
0.0071518295 0.09216282 0  
-0.14120433 -0.1484696 0  
-0.14581114 0.13960092 0  
0.1458264 -0.14505939 0  
0.13960092 0.14581114 0  
0.41838804 -0.3182741 0  
0.3182741 0.41838804 0  
-0.41838804 0.3182741 0  
-0.3182741 -0.41838804 0  
0.32118136 -0.41712493 0  
0.41712493 0.32118136 0  
-0.32118136 0.41712493 0  
-0.41712493 -0.32118136 0  
-0.19707234 -0.014843048 0  
0.018050108 -0.20183705 0  
0.19707234 0.014843048 0  
-0.014843048 0.19707234 0  
-0.10938372 -0.41847488 0  
0.41847488 -0.10938372 0  
0.10938372 0.41847488 0  
-0.41847488 0.10938372 0  
0.15773043 -0.4267032 0  
0.4267032 0.15773043 0  
-0.15773043 0.4267032 0  
-0.4267032 -0.15773043 0  
-0.3204562 -0.07174808 0  
0.07174808 -0.3204562 0  
0.3204562 0.07174808 0  
-0.07174808 0.3204562 0  
0.02801032 -0.07269879 0  
-0.31817523 0.069836795 0  
-0.069836795 -0.31817523 0  
0.31817523 -0.069836795 0  
0.069836795 0.31817523 0  
0.43106207 -0.17757268 0  
0.17757268 0.43106207 0  
-0.43106207 0.17757268 0  
-0.17757268 -0.43106207 0  
0.0703783 0.071201205 0  
-0.051593844 0.064346604 0  
0.099701226 -0.08333426 0  
0.2863281 -0.17248559 0  
0.17248559 0.2863281 0  
-0.2863281 0.17248559 0  
-0.17248559 -0.2863281 0  
-0.2341888 0.04979648 0  
-0.049194112 -0.231281 0  
0.23358595 -0.04946041 0  
0.04979648 0.2341888 0  
-0.009939441 -0.13691185 0  
-0.26560438 -0.17864102 0  
0.17864102 -0.26560438 0  
0.26560438 0.17864102 0  
-0.17864102 0.26560438 0  
0.013302229 -0.43510666 0  
0.43510666 0.013302229 0  
-0.013302229 0.43510666 0  
-0.43510666 -0.013302229 0  
0.09432827 0.114700764 0  
-0.11539384 0.093188405 0  
-0.3413634 -0.005100272 0  
0.005100272 -0.3413634 0  
0.3413634 0.005100272 0  
-0.005100272 0.3413634 0  
-0.19817708 -0.3508856 0  
0.3508856 -0.19817708 0  
0.19817708 0.3508856 0  
-0.3508856 0.19817708 0  
-0.34100306 -0.27216324 0  
0.27216324 -0.34100306 0  
0.34100306 0.27216324 0  
-0.27216324 0.34100306 0  
-0.20269383 -0.14403741 0  
0.14393912 -0.2028372 0  
0.2026342 0.14393856 0  
-0.14393856 0.2026342 0  
-0.1030633 -0.10524017 0  
-0.4394695 -0.104853734 0  
0.104853734 -0.4394695 0  
0.4394695 0.104853734 0  
-0.104853734 0.4394695 0  
-0.44156647 -0.44156647 0  
0.44156647 -0.44156647 0  
0.44156647 0.44156647 0  
-0.44156647 0.44156647 0  
-0.2683254 -0.44465622 0  
0.44465622 -0.2683254 0  
0.2683254 0.44465622 0  
-0.44465622 0.2683254 0  
0.2654342 -0.4435478 0  
0.4435478 0.2654342 0  
-0.2654342 0.4435478 0  
-0.4435478 -0.2654342 0  
-0.27373606 -0.34534052 0  
0.34534052 -0.27373606 0  
0.27373606 0.34534052 0  
-0.34534052 0.27373606 0  
-0.05307205 -0.4481981 0  
0.4481981 -0.05307205 0  
0.05307205 0.4481981 0  
-0.4481981 0.05307205 0  
-0.35614902 -0.19390328 0  
0.19390328 -0.35614902 0  
0.35614902 0.19390328 0  
-0.19390328 0.35614902 0  
-0.14022674 -0.012452113 0  
0.14171903 0.011271359 0  
-0.01125192 0.14089845 0  
-0.19556868 -0.06932378 0  
0.070511825 -0.19668652 0  
0.19556868 0.06932378 0  
-0.06932378 0.19556868 0  
-0.24951252 -0.039742906 0  
0.04037078 -0.2503529 0  
0.24951252 0.039742906 0  
-0.039742906 0.24951252 0  
0.44100407 -0.36164257 0  
0.36164257 0.44100407 0  
-0.44100407 0.36164257 0  
-0.36164257 -0.44100407 0  
-0.4451273 -0.36589316 0  
0.36589316 -0.4451273 0  
0.4451273 0.36589316 0  
-0.36589316 0.4451273 0  
0.1121834 -0.30242515 0  
0.30242515 0.1121834 0  
-0.1121834 0.30242515 0  
-0.30242515 -0.1121834 0  
-0.115146436 -0.19087775 0  
0.19190264 -0.11309679 0  
0.11520548 0.19263776 0  
-0.19263776 0.11520548 0  
-0.08287991 -0.37025127 0  
0.37025127 -0.08287991 0  
0.08287991 0.37025127 0  
-0.37025127 0.08287991 0  
0.23791528 -0.24381089 0  
0.24381089 0.23791528 0  
-0.23791528 0.24381089 0  
-0.24381089 -0.23791528 0  
-0.44626984 -0.21174923 0  
0.21174923 -0.44626984 0  
0.44626984 0.21174923 0  
-0.21174923 0.44626984 0  
0.35174853 -0.37705234 0  
0.37705234 0.35174853 0  
-0.35174853 0.37705234 0  
-0.37705234 -0.35174853 0  
-0.048605647 -0.023262763 0  
-0.1551113 -0.21381997 0  
0.21381997 -0.1551113 0  
0.1551113 0.21381997 0  
-0.21381997 0.1551113 0  
-0.29403278 -0.30027482 0  
0.30027482 -0.29403278 0  
0.29403278 0.30027482 0  
-0.30027482 0.29403278 0  
0.12173745 -0.390654 0  
0.390654 0.12173745 0  
-0.12173745 0.390654 0  
-0.390654 -0.12173745 0  
-0.12236246 -0.2979882 0  
0.2979882 -0.12236246 0  
0.12236246 0.2979882 0  
-0.2979882 0.12236246 0  
-0.0945969 -0.046371013 0  
0.035276897 -0.027358124 0  
-0.0076714605 0.051946 0  
-0.30809116 -0.17165439 0  
0.17165439 -0.30809116 0  
0.30809116 0.17165439 0  
-0.17165439 0.30809116 0  
-0.16592422 -0.10879113 0  
0.10700909 -0.1687818 0  
0.16864619 0.10664837 0  
-0.10664837 0.16864619 0  
-0.16784625 -0.38069874 0  
0.38069874 -0.16784625 0  
0.16784625 0.38069874 0  
-0.38069874 0.16784625 0  
-0.4563872 -0.05993889 0  
0.05993889 -0.4563872 0  
0.4563872 0.05993889 0  
-0.05993889 0.4563872 0  
0.31103167 -0.37412483 0  
0.37412483 0.31103167 0  
-0.31103167 0.37412483 0  
-0.37412483 -0.31103167 0  
-0.3909646 -0.012754724 0  
0.012754724 -0.3909646 0  
0.3909646 0.012754724 0  
-0.012754724 0.3909646 0  
0.44915667 -0.21679194 0  
0.21679194 0.44915667 0  
-0.44915667 0.21679194 0  
-0.21679194 -0.44915667 0  
0.045831423 0.12033131 0  
-0.12662303 0.045442794 0  
-0.3107799 -0.37355793 0  
0.37355793 -0.3107799 0  
0.3107799 0.37355793 0  
-0.37355793 0.3107799 0  
0.04152367 0.021693805 0  
-0.08040017 -0.2675595 0  
0.26794365 -0.08044455 0  
0.080500565 0.2680441 0  
-0.2680441 0.080500565 0  
-0.13753757 -0.45578164 0  
0.45578164 -0.13753757 0  
0.13753757 0.45578164 0  
-0.45578164 0.13753757 0  
-0.05507968 -0.12135967 0  
0.14172421 -0.09428923 0  
0.2571752 -0.19664502 0  
[...]
POINT_DATA 2173 
SCALARS T float 
LOOKUP_TABLE default 
8.94297378605482e-21 
-9.44028844315447e-19 
7.701004743808673e-18 
2.9952451949111966e-20 
3.384094721691174e-18 
7.399707492257271e-18 
-1.5434637727047097e-17 
1.6962644080631605e-17 
8.037969115358464e-18 
-4.122522995059403e-18 
-7.183968425244518e-19 
9.101061730851268e-19 
1.2417216712751903e-17 
-9.01736186658696e-18 
-1.0522012865788686e-17 
2.3474944643271564e-18 
6.9281505460565656e-18 
-1.2541703908918061e-17 
2.4597606412498593e-17 
-3.0802035881538903e-17 
4.909837731240915e-17 
-1.6649430832253245e-17 
-1.8970480537143245e-17 
8.308460172529885e-18 
-4.464565407242199e-18 
3.3524350020511025e-18 
1.4876865188533247e-17 
-3.4541099788984504e-17 
2.5766620791812696e-17 
-4.4131133698658715e-17 
2.6918749823055906e-17 
-3.0438935937645916e-17 
-1.8047834219584575e-17 
3.260973275087915e-17 
-1.421759723271553e-16 
-2.901915627850462e-17 
-2.8760507654613187e-17 
-9.417426116799021e-18 
-4.5044315870751206e-17 
-6.701575499001486e-17 
6.253423698858133e-17 
-2.6172387831453046e-17 
-3.0470750457117593e-18 
-3.1650537696077372e-18 
1.983444427459186e-17 
-9.441203169130242e-17 
8.384291684875916e-17 
7.976942137156742e-17 
6.170801304519844e-17 
-5.3759584910104016e-17 
-1.0582336415225151e-16 
2.99483108541749e-17 
-1.3492684522792798e-16 
1.0187351376648504e-16 
-4.250125750565527e-17 
1.145401059698024e-16 
2.999920633144451e-17 
-1.0621907966007914e-18 
3.125796564842187e-17 
-9.37535495526169e-17 
3.274421101268666e-17 
3.588335905251903e-17 
4.493278182696411e-17 
-1.475976361905678e-16 
3.000291144022636e-16 
-4.497655733730318e-16 
3.9544417075106334e-16 
9.090119529950247e-17 
2.2562395822480435e-16 
-2.1594971808338107e-16 
3.969711275813231e-16 
-2.5595436003591763e-16 
-5.774354377854414e-17 
-5.3354282095601186e-17 
7.504513635306231e-16 
1.0860513210225292e-16 
4.336085807632745e-17 
-8.73685663313051e-17 
-7.217401931197407e-17 
-1.442851542719798e-16 
-7.815355383938213e-17 
-1.424800553090776e-16 
1.3929624448966406e-16 
-3.506344718914084e-17 
1.2990952373142207e-16 
-2.1278234257835694e-16 
-8.73795579765317e-18 
1.6864290877809891e-16 
4.0568043358148505e-16 
2.8490898180616046e-16 
-2.4724700208520586e-16 
6.876812195865253e-16 
-7.334171782664829e-16 
6.532927221260528e-16 
5.800776249234544e-16 
4.545956985847099e-16 
1.1943562711101334e-15 
-8.20964687348119e-16 
6.69947729672252e-16 
2.6382387064742195e-16 
-6.38000170609761e-16 
8.352952596755688e-16 
-7.961694854555338e-16 
8.140498565917931e-16 
-4.3619719802199136e-16 
4.0931458428397625e-16 
1.0266502873728931e-16 
-1.1725434424795431e-17 
8.7204304641684e-17 
-8.352715423533279e-17 
4.278447194886483e-17 
-1.3564384914292276e-16 
-9.808557912216759e-17 
-8.527634601342275e-17 
-1.416725069208215e-17 
-3.1409938991040973e-17 
-7.273996059086406e-18 
-1.8950325056862425e-18 
-7.915112688000721e-19 
-6.340407912247811e-19 
6.491943869710778e-19 
-5.829352722996982e-19 
3.990144551676109e-19 
2.051244901852808e-18 
9.262287278029205e-19 
1.2934380260970877e-18 
-8.085671549830795e-19 
-1.7996112065740445e-18 
-5.9877418754570566e-18 
-5.641990506017315e-18 
4.188482782345406e-18 
8.953678638559784e-19 
7.946709985513047e-19 
3.0766329488802717e-19 
1.6670880424617148e-18 
8.647503111555711e-19 
7.470084052242888e-19 
6.694315236372183e-19 
-4.84180358721189e-19 
1.23222376011788e-18 
-1.7878972968318313e-18 
1.8903780073518423e-18 
-2.1729002858712018e-18 
1.4429569543230014e-18 
4.883557837666467e-18 
1.0449525469822982e-18 
-1.647438228784056e-19 
-3.128695843149361e-18 
3.339281555766305e-18 
-6.407571852242209e-18 
8.5451834052278e-18 
-7.154634945814464e-18 
-5.3778054024550276e-18 
4.881217516047865e-19 
-1.3552278299426686e-17 
-1.1320322960297638e-17 
-1.0782661057822066e-17 
1.5526561562294202e-17 
-5.814721451521909e-18 
-3.831752887251597e-18 
6.729388619392698e-6 
-1.2904000547584858e-5 
-1.286419964777819e-5 
0.00026775034261208923 
0.2948197225588725 
-2.5725458857494524e-5 
-1.9092836685555646e-5 
9.827960174114275e-5 
0.018122701560984902 
1.2691268050595002e-5 
7.426234824646726e-5 
-3.469757518298691e-5 
-5.963446911462204e-6 
-1.0182991431350462e-5 
-1.6887941294615715e-5 
-0.00029887748208539793 
0.1333462136565085 
-7.0870436167578504e-6 
-4.308187992855035e-5 
-0.0007085140759594432 
0.000206065744424944 
9.608464643450292e-6 
-0.0003269385252841192 
0.03218295478182557 
3.865579431346013e-6 
1.4754740154565809e-5 
-4.501459169410026e-5 
0.0014114375151583504 
0.018296516541307383 
1.5738005942312446e-5 
0.00010074287468829732 
-0.0005225908672101097 
-1.8317806480141085e-6 
8.266977147913036e-7 
-0.0003699299479630719 
4.214173907131071e-6 
9.524198762757523e-6 
-1.0057397947085002e-6 
6.978244206567255e-5 
1.629887465834263e-5 
5.3197288677286625e-6 
7.822340069127679e-7 
-3.678014684330957e-5 
0.000516366255953704 
0.42704167633608275 
9.450837317356539e-6 
-7.357493266235949e-5 
0.0008107648407425422 
0.0375319081377519 
-6.026172415761127e-6 
-3.2999871467278346e-5 
-3.334875047501265e-5 
-8.124499428657237e-6 
-1.4451939207103494e-5 
-0.00014828199819756177 
0.0015658907162482095 
-1.4845177799068997e-6 
2.3139242404461456e-5 
-0.00032059409228734476 
0.00958463512372949 
-8.95171835661999e-6 
-4.590072468152593e-6 
-1.4383096868763674e-5 
1.1154127294447595e-5 
0.10909190634325049 
0.00043588813918710195 
2.7991345208183358e-6 
-0.00011257065516374056 
0.003120087062945085 
3.7203571515463876e-6 
0.2968601722375695 
3.475297422881708e-5 
-0.000939062902267627 
2.407419573258231e-6 
-0.0003251540594391944 
1.5911640321856845e-6 
-4.083684659297839e-6 
-2.7254322189797557e-5 
0.0006109476876226177 
-4.638271402480996e-5 
-4.571003265837681e-6 
1.2035012431929608e-5 
-4.038408591076656e-6 
0.00013256859212708362 
0.06098590583817191 
7.479143138319095e-6 
-0.00010493026371286863 
-6.238898179831558e-6 
-2.560149761512112e-6 
-5.4890545036202334e-6 
-0.00013049362584042291 
0.0003875479001549819 
4.900159752090628e-7 
1.4180865123979297e-6 
7.822072214883386e-6 
-0.00022300036471848385 
0.04197056100669911 
-3.116635449545167e-5 
5.440575050589809e-5 
1.2446213415653343e-5 
4.362700436061506e-5 
0.0007902949320024359 
-5.523903816319837e-5 
-0.0001254473802755044 
1.6912844614683422e-6 
-3.4030144093445666e-6 
0.00039783488621381605 
0.006267975967188712 
7.749350882976182e-5 
-3.781092493027727e-5 
-0.00041096886540149016 
0.021520142458315804 
-7.328028918344949e-7 
0.0036647232476164867 
-1.2709593445261837e-5 
2.108398020749979e-5 
0.005861026382493699 
-1.990685551819553e-5 
-9.324630190051716e-6 
2.867573114209481e-5 
0.00014720793253721962 
0.280456674099716 
-4.643075894372698e-6 
-0.00014478055440813147 
-0.0006226757489958854 
2.740930214274202e-6 
0.00015553028254655885 
0.07044370063571942 
-6.209180556959927e-6 
6.367743544544151e-6 
-0.00010476812657828622 
0.000940334926368029 
-1.0178408221821269e-5 
-1.4886651562790168e-5 
-1.078548501795771e-5 
0.0002851006056178608 
-7.408606423632098e-6 
-3.414218807795411e-5 
-0.00016169570926291273 
0.001383773758682205 
-3.8115105738745268e-6 
-2.242236597236486e-5 
-0.0008822921490633679 
0.5981436620932478 
4.462314637882711e-6 
-3.850320144434647e-7 
-1.1428393851043482e-5 
0.00021994755998956743 
0.00028747726204985687 
1.129337740240572e-6 
8.829004799656106e-6 
2.37544678417312e-5 
-7.210633319164811e-7 
-3.486364128793092e-6 
5.590675438872248e-5 
-0.0003490317632949296 
7.358685947632665e-6 
-4.6448881618683405e-5 
-2.2095701533422755e-5 
-6.133631532986337e-5 
2.129685938037256e-6 
-3.0472912148339697e-6 
2.5590578597803825e-5 
-0.00013647815212013836 
-4.06644537988972e-5 
-1.919436464088944e-5 
-8.382724533681553e-5 
8.277574088108442e-5 
1.3413540264955914e-6 
-4.613564258432888e-6 
-2.2923163532512023e-5 
0.0005308697056221229 
0.009382212456812325 
0.00010761790178643495 
0.00012945731935519778 
0.023908839467980576 
-4.786376562408461e-6 
-2.9574072498512343e-5 
-8.547437143112624e-5 
0.29752144799342733 
-1.2428905744280901e-5 
1.485129396776326e-5 
-0.00016812786272501655 
0.10681617900660724 
6.325159337819415e-6 
0.0001364842641561244 
-7.300145261582977e-6 
3.6484708776335586e-6 
6.311202876586876e-7 
2.2114990447534598e-5 
0.00014250603386573068 
-2.0242691015648955e-5 
-1.474912545102866e-5 
0.0004665931671059847 
0.13519154641526923 
-7.5126087076817576e-6 
-5.6726274086586825e-6 
-9.369941979136245e-6 
-6.099727261370975e-5 
0.11445772406145426 
8.912506394598621e-7 
-5.27122885691893e-6 
8.851686018289657e-5 
-3.578452384489455e-5 
1.1785495736378293e-5 
-0.0005502871863065193 
0.10896887963558848 
5.349764600274652e-6 
-1.3971087209081404e-7 
-2.495702882025914e-5 
-0.00010806058569866389 
0.00013959782465090454 
5.1202271444178463e-5 
-0.00017347113812451646 
4.440814071188828e-5 
6.502164149104451e-6 
3.1073655186386423e-6 
-6.034648251695707e-6 
3.695640754833149e-5 
-0.000672628616027417 
0.18072432033376776 
-3.1905798794323036e-8 
8.515966651932948e-6 
-0.0001425178065184762 
0.0021696889742613273 
1.7069548676499168e-5 
0.00032834527147021525 
0.0036562766975558507 
2.3295719981531948e-6 
6.068413245515202e-6 
-6.070952460840699e-6 
-0.0012910020883514647 
0.004774451683188267 
-3.989513949550804e-6 
-1.8290964297326186e-5 
0.000696176770783752 
-6.849006382627052e-6 
-6.432220188978186e-6 
0.0003525209986099051 
0.10200644511291228 
3.6144385220882365e-6 
2.2316138289717034e-5 
0.0006426052458643876 
0.4062560674939891 
-2.0282061668007164e-6 
-5.8162693237953665e-5 
0.0001599082735210068 
-4.595801477565489e-5 
-6.057702982522007e-7 
1.0783242579130665e-5 
-1.1488182496013343e-5 
0.00019670781715076284 
-3.3337176233278844e-6 
0.00036754852015185267 
-0.00010425548280689108 
4.453797371960236e-6 
-2.8936566844878502e-6 
-3.639343813021108e-6 
0.00013462149615845373 
-0.0017084742928546674 
1.2179456127195418e-5 
0.0007802368084045972 
4.0791385533058806e-6 
7.2048646053814686e-6 
0.00167534629959448 
0.00877324903706544 
-2.441439837191697e-7 
1.953732727665672e-5 
-0.0003415042340027375 
-5.487086332436643e-5 
9.502475255497253e-5 
1.100554230438107e-6 
6.59781823764433e-5 
0.001180040615128249 
0.004578445864298601 
1.3593990403020368e-5 
-1.064795906239099e-5 
-3.1153167287617716e-5 
1.9410506759300987e-7 
1.393836022562559e-6 
5.203906231463672e-5 
9.63022557946485e-6 
-0.00038332179980862 
0.07486384824876652 
-1.219234737442828e-5 
0.00019114185381644556 
1.0170607381106496e-8 
9.018829835861159e-6 
5.441105773230659e-5 
-0.00024977643772259927 
6.584275991186321e-6 
2.87147508702026e-5 
-0.00012788155183645836 
-3.6331222503226285e-6 
7.256700518567977e-6 
5.587909476944429e-5 
-0.0001081970937948379 
6.3132849335425505e-6 
2.286366326957156e-6 
-0.00030920248422584433 
0.016099865541996397 
1.3183272368431305e-6 
-8.742177907282654e-6 
0.0002087789035661328 
0.13861329378798945 
0.0003500642510459488 
1.911670875135575e-6 
1.2769386533552e-5 
5.427036444732501e-6 
-8.592558561589823e-6 
0.005406631306065415 
0.001758881572464685 
0.00012049445109556112 
8.973059604996888e-6 
0.0001035675551550527 
0.01745937753034 
-5.476565130661304e-6 
-1.1533807272069109e-5 
-0.0002849645100734794 
7.29894066025381e-5 
2.1614352581863872e-5 
1.5647714164280628e-5 
9.778235717022546e-6 
0.0002880901867821175 
0.005412236173578402 
5.64986889361087e-7 
1.6512675863580784e-6 
-1.3790951522972368e-6 
-0.0001503045660665389 
-4.042376611415367e-5 
2.3059908109764388e-7 
-3.106755580847513e-5 
-7.3439462242138835e-6 
-2.9719570178046973e-5 
-0.00048304598729128137 
-1.2788406771607498e-5 
-6.85038319275561e-6 
-0.0004019402927897284 
5.054083871662022e-7 
-5.330909632516242e-7 
0.00020631647567624452 
0.002682650239700161 
6.654837752652766e-8 
-4.012810230286872e-6 
6.792848640981956e-6 
0.00021614345512292244 
0.021200146771871434 
9.501651525053037e-7 
0.4101634534696088 
2.575275066232721e-5 
0.0012556059900158557 
-1.349830090323462e-6 
8.58254917559584e-5 
3.0918017635842274e-5 
-2.7124934463156905e-7 
1.0006197713328135e-6 
1.084733753483238e-5 
-0.0011795619123619685 
-3.960453497374802e-5 
1.2120545342571606e-5 
-9.860527016964044e-5 
-0.0003197005598992688 
1.3449117258049277e-6 
-3.659697207619699e-6 
-3.544983578443389e-5 
-0.00024771317643571233 
-8.321064993543884e-5 
5.344952822468863e-5 
-0.0001267778054783059 
-8.450571038550681e-7 
7.087806773281214e-6 
3.0149791791384732e-5 
-8.463971286099295e-5 
1.2937731087687284e-6 
9.361628599085375e-6 
8.250105975956862e-5 
1.2051313156649589e-5 
-7.42090213838479e-5 
0.001099452443205751 
-9.320831405383555e-6 
0.00018069666882409002 
0.11136697640669614 
0.0005518227191970409 
0.08353585250656986 
-1.847908762517275e-6 
6.379662443007688e-6 
0.00015159697240809105 
0.02543245165953244 
-1.45319018409192e-6 
-1.5769901158671296e-5 
5.55870034243891e-5 
-0.0011668255308621448 
-0.00014333768536916789 
-8.143945733875176e-6 
-2.038343495630579e-5 
0.0005114926984381203 
0.264364853575091 
-5.357450620885041e-5 
0.0006803416430301066 
2.0065381912392753e-6 
5.214536658606254e-6 
0.0009420300108640032 
4.548012629076378e-6 
-4.433633579520444e-6 
-0.0012092865003136754 
0.5189674435562731 
4.8671066789734385e-6 
-0.00017865837162684727 
0.00011315712755443343 
3.198313086985416e-7 
-2.412133157241453e-5 
0.0006723308731880398 
0.05672996089600359 
-2.3797783010716688e-6 
5.0994425230158885e-5 
0.04281072694365183 
2.00949541480874e-5 
-0.0006292555726751019 
0.022894218424039624 
-3.0613105890171816e-6 
0.0001534863438454962 
1.1522841840325595e-6 
-3.5576834496443294e-5 
-0.001463874354397053 
3.3524768210320595e-6 
-1.8558729436391976e-5 
-0.00038295552737453264 
0.01338920345793221 
1.246776413065811e-6 
-2.147875926485249e-5 
0.0005601356714672272 
0.024059841277971616 
1.3274217679155878e-5 
0.0002944767678618458 
0.00018952973293355873 
7.1881795320159275e-6 
-8.363188089407465e-7 
-1.1338443615761152e-7 
0.00024200213477100374 
-1.1563923502979026e-5 
-4.013781680274665e-6 
-2.7253626327185064e-5 
-0.00014051026175257154 
0.002477305764132896 
1.0881260003765252e-5 
3.60553753088841e-5 
9.747995923014713e-5 
0.006325564023978253 
-0.0009579568211646982 
0.1944359478677151 
3.4730713825642626e-5 
-0.00024142957408806662 
2.0206710205757406e-5 
-1.361960786039656e-7 
5.360213248919428e-6 
3.208747323389643e-5 
2.112020473166667e-5 
-3.3425921353793144e-7 
2.862542455491306e-6 
1.5274535356233357e-5 
-1.4197433784960466e-5 
0.4019432697082995 
0.0019268530965746173 
3.038866577628991e-5 
0.009421920761033925 
0.006438211345857205 
-4.4010039192911205e-5 
9.59896311966253e-6 
-1.3495195161024114e-7 
-0.0006776029415646963 
-1.0371646154810821e-5 
-2.8539839209911404e-5 
3.6434355453008e-7 
6.855339803138364e-5 
9.472899187996314e-6 
-2.651593535355837e-5 
-1.6283498635494172e-5 
-8.651569491344464e-5 
0.4621657521914897 
5.368455570857769e-6 
-2.9715605793602703e-5 
3.9051547432666265e-5 
0.0004245402355505735 
-7.336475082861003e-7 
-2.419784232397552e-6 
1.3447803833459732e-5 
6.663867127235721e-7 
-2.332690626488277e-5 
-6.751436498611389e-5 
3.829911287335654e-5 
0.0001708289819071107 
0.0014186009425511817 
-0.0004388553069939107 
0.29012591421949746 
0.15551051951414907 
0.24474374884963962 
1.1866250683939349e-5 
-1.381970644964912e-5 
-5.564050092434299e-7 
0.00010746907380639529 
-0.00010791529313159418 
2.6182442109511633e-5 
0.005333027690306903 
0.0026391358172522987 
-0.0008073628828023853 
0.002657870140171568 
0.006353791056976304 
0.009001187498665372 
4.666054029292209e-6 
-7.121799254977291e-6 
0.3779423796770945 
0.20257857993350212 
-3.9439937591588915e-5 
4.7051969489638056e-6 
-0.0012609671443949736 
0.001675085231380647 
0.010561040809943991 
0.02269737407744214 
8.497937579865296e-7 
-1.3407315602988719e-5 
2.7011363591065346e-5 
5.493505117808927e-5 
-0.0005867850589419293 
0.0011480710495729639 
0.00032423268097794204 
-8.87580969482004e-5 
-0.0003808604933922504 
9.963232166311112e-7 
-6.29935021772527e-6 
4.5286121700519985e-6 
6.000439471021492e-6 
-1.7973023456642098e-6 
2.4715569668429767e-6 
6.690725261763522e-6 
-1.6283501299414604e-5 
-2.6538591907446313e-7 
3.663067087173756e-5 
-3.914623580031778e-5 
0.0003117316150012567 
0.00014628318607804556 
-0.0003275071948672708 
-5.6656924477103185e-6 
-1.6129915933692858e-6 
1.0434048427639728e-5 
2.6068220479915e-6 
6.53627055250697e-6 
-2.1761711020171797e-5 
4.21494914285683e-5 
-4.967303582527111e-5 
5.6605263021846833e-5 
6.1013949052967616e-6 
1.1845532876709667e-6 
-6.082067798568373e-6 
9.476952354294918e-6 
1.1016362340336757e-5 
4.666858228329602e-5 
0.00016863710218811666 
-0.00013207007199071181 
7.741386818009522e-7 
4.965945669019357e-7 
-3.4896199154529364e-6 
-3.1909387933563185e-5 
-1.4964396474262042e-5 
-1.419187634606796e-6 
-1.2158574945209791e-5 
8.638499162101517e-6 
5.24912339413152e-5 
6.218446541799096e-5 
2.5978200979148652e-5 
0.006612625310568782 
0.0041421139411849115 
0.007743042643259054 
4.164589213089365e-6 
-2.6849805339073386e-5 
-4.9195898124761166e-5 
-6.381512669279879e-5 
9.249869670756047e-5 
0.0001484516130671862 
-2.236038837269746e-6 
3.63070656479845e-6 
-3.311171874786542e-6 
6.272950618153055e-6 
-5.457430717520933e-6 
-4.970548179299128e-7 
1.2150562477501674e-5 
-1.3435437857942813e-5 
7.197303902237894e-5 
-0.00037480406882750686 
0.00036034676050465247 
2.7042057501593347e-5 
2.766388669722208e-5 
1.128287858235935e-5 
4.701756299656745e-5 
1.8502173949451959e-6 
-6.414324353142132e-6 
2.580457132650316e-6 
-4.967416112990497e-6 
-6.27633496926873e-5 
0.00026059213885963595 
2.8588243667579824e-6 
-1.09056103398578e-5 
6.830100168697022e-5 
6.564714236552084e-5 
-3.700017375722929e-6 
1.9280695279570823e-5 
1.4950931369791094e-5 
-0.0003452511393904586 
6.128710747214129e-5 
7.538925431954613e-5 
2.7316301067697285e-6 
2.2112196281987937e-6 
3.031464593656549e-6 
0.0002720989227085635 
-1.0742936452072255e-5 
1.368382420822857e-5 
8.440285150192162e-6 
-7.073770713222915e-6 
4.1476878396650034e-5 
-1.5477351968404194e-5 
-3.5585117952407965e-5 
-0.0003110111101967397 
1.2372650449170092e-5 
-4.3660000153350235e-6 
5.668895672154886e-6 
-4.268863002023389e-6 
3.3806723230588314e-5 
-5.706210366594899e-5 
-0.00014535722601209574 
-2.3824570962138938e-5 
-2.2766778733793804e-6 
3.189665644720449e-7 
-4.340177072852952e-5 
-1.2706836057181534e-5 
4.585598998098096e-6 
9.21177239562192e-7 
3.820558964184531e-6 
6.903860489798118e-5 
0.001388356829395691 
0.002122878096185307 
-7.075877532162285e-6 
1.0458499005025117e-5 
1.3419741216991857e-6 
1.1482905320434627e-5 
3.87402520860174e-5 
-3.127587775851824e-5 
0.00013437835839663859 
0.00032017474111874266 
-0.00012832136050683473 
-0.00011488127929361505 
0.0002070682803190545 
0.0013790861525959518 
-0.0005194448857316027 
0.0006421464910070861 
4.386776349995077e-6 
5.3550307756913965e-6 
-2.5345021365103306e-5 
5.635805989081484e-5 
-0.000566732020404229 
0.00017398054684857856 
-4.682288969755874e-6 
-3.489600883161845e-5 
-1.6171173996718022e-6 
-6.385767236523271e-6 
2.0028800763062743e-5 
0.0003330036008966475 
-0.0004304799409409729 
-3.366199606020513e-5 
0.0010876784936160585 
0.00023175778627263315 
0.00011000849589959043 
-1.291808206886555e-6 
-3.5319838854056233e-7 
-1.4413652455925854e-6 
-1.3186688787867373e-5 
-1.767760365952589e-5 
2.04188520549062e-5 
-2.682456160447748e-5 
-0.00018846325185371327 
-0.00010382167337021818 
2.6986262849703058e-5 
3.0583169351546894e-5 
3.26946793660868e-5 
9.128718235660567e-6 
-7.4180869260130125e-6 
2.3958749549141304e-6 
-6.434599901268535e-6 
5.468957436534903e-7 
-5.684236860485146e-6 
1.0444733717942546e-5 
0.00010365352764153747 
6.311185834619436e-5 
-3.45572422370281e-5 
0.0003347003007975352 
-4.0120935820276276e-6 
-4.529072296082627e-6 
-2.1645557957122118e-7 
-2.642570809640816e-6 
1.1344699666775763e-5 
-4.502182868287382e-5 
3.957002059113639e-5 
-0.00024338196335788704 
4.659452965830769e-5 
-6.647720524338322e-5 
-3.6771698022100354e-6 
2.581815129721095e-6 