# vtk DataFile Version 3.0 
Unstructured Grid 
ASCII 
DATASET UNSTRUCTURED_GRID
POINTS 2173 float 
-0.5 -0.5 0  
0.5 -0.5 0  
0.5 0.5 0  
-0.5 0.5 0  
-0.475 -0.5 0  
-0.45 -0.5 0  
-0.425 -0.5 0  
-0.4 -0.5 0  
-0.375 -0.5 0  
-0.35 -0.5 0  
-0.325 -0.5 0  
-0.3 -0.5 0  
-0.275 -0.5 0  
-0.25 -0.5 0  
-0.225 -0.5 0  
-0.2 -0.5 0  
-0.175 -0.5 0  
-0.15 -0.5 0  
-0.125 -0.5 0  
-0.1 -0.5 0  
-0.075 -0.5 0  
-0.05 -0.5 0  
-0.025 -0.5 0  
-1.3761214e-12 -0.5 0  
0.025 -0.5 0  
0.05 -0.5 0  
0.075 -0.5 0  
0.1 -0.5 0  
0.125 -0.5 0  
0.15 -0.5 0  
0.175 -0.5 0  
0.2 -0.5 0  
0.225 -0.5 0  
0.25 -0.5 0  
0.275 -0.5 0  
0.3 -0.5 0  
0.325 -0.5 0  
0.35 -0.5 0  
0.375 -0.5 0  
0.4 -0.5 0  
0.425 -0.5 0  
0.45 -0.5 0  
0.475 -0.5 0  
0.5 -0.475 0  
0.5 -0.45 0  
0.5 -0.425 0  
0.5 -0.4 0  
0.5 -0.375 0  
0.5 -0.35 0  
0.5 -0.325 0  
0.5 -0.3 0  
0.5 -0.275 0  
0.5 -0.25 0  
0.5 -0.225 0  
0.5 -0.2 0  
0.5 -0.175 0  
0.5 -0.15 0  
0.5 -0.125 0  
0.5 -0.1 0  
0.5 -0.075 0  
0.5 -0.05 0  
0.5 -0.025 0  
0.5 -1.3761214e-12 0  
0.5 0.025 0  
0.5 0.05 0  
0.5 0.075 0  
0.5 0.1 0  
0.5 0.125 0  
0.5 0.15 0  
0.5 0.175 0  
0.5 0.2 0  
0.5 0.225 0  
0.5 0.25 0  
0.5 0.275 0  
0.5 0.3 0  
0.5 0.325 0  
0.5 0.35 0  
0.5 0.375 0  
0.5 0.4 0  
0.5 0.425 0  
0.5 0.45 0  
0.5 0.475 0  
0.475 0.5 0  
0.45 0.5 0  
0.425 0.5 0  
0.4 0.5 0  
0.375 0.5 0  
0.35 0.5 0  
0.325 0.5 0  
0.3 0.5 0  
0.275 0.5 0  
0.25 0.5 0  
0.225 0.5 0  
0.2 0.5 0  
0.175 0.5 0  
0.15 0.5 0  
0.125 0.5 0  
0.1 0.5 0  
0.075 0.5 0  
0.05 0.5 0  
0.025 0.5 0  
1.3761214e-12 0.5 0  
-0.025 0.5 0  
-0.05 0.5 0  
-0.075 0.5 0  
-0.1 0.5 0  
-0.125 0.5 0  
-0.15 0.5 0  
-0.175 0.5 0  
-0.2 0.5 0  
-0.225 0.5 0  
-0.25 0.5 0  
-0.275 0.5 0  
-0.3 0.5 0  
-0.325 0.5 0  
-0.35 0.5 0  
-0.375 0.5 0  
-0.4 0.5 0  
-0.425 0.5 0  
-0.45 0.5 0  
-0.475 0.5 0  
-0.5 0.475 0  
-0.5 0.45 0  
-0.5 0.425 0  
-0.5 0.4 0  
-0.5 0.375 0  
-0.5 0.35 0  
-0.5 0.325 0  
-0.5 0.3 0  
-0.5 0.275 0  
-0.5 0.25 0  
-0.5 0.225 0  
-0.5 0.2 0  
-0.5 0.175 0  
-0.5 0.15 0  
-0.5 0.125 0  
-0.5 0.1 0  
-0.5 0.075 0  
-0.5 0.05 0  
-0.5 0.025 0  
-0.5 1.3761214e-12 0  
-0.5 -0.025 0  
-0.5 -0.05 0  
-0.5 -0.075 0  
-0.5 -0.1 0  
-0.5 -0.125 0  
-0.5 -0.15 0  
-0.5 -0.175 0  
-0.5 -0.2 0  
-0.5 -0.225 0  
-0.5 -0.25 0  
-0.5 -0.275 0  
-0.5 -0.3 0  
-0.5 -0.325 0  
-0.5 -0.35 0  
-0.5 -0.375 0  
-0.5 -0.4 0  
-0.5 -0.425 0  
-0.5 -0.45 0  
-0.5 -0.475 0  
-0.002115384 -0.00023065208 0  
-0.20714286 -0.20714286 0  
0.20714286 -0.20714286 0  
0.20714286 0.20714286 0  
-0.20714286 0.20714286 0  
-0.28155318 -0.0017231192 0  
0.0017231192 -0.28155318 0  
0.28155318 0.0017231192 0  
-0.0017231192 0.28155318 0  
0.3319978 -0.33098683 0  
0.33098683 0.3319978 0  
-0.3319978 0.33098683 0  
-0.33098683 -0.3319978 0  
-0.14015679 -0.06698606 0  
0.06698606 -0.14015679 0  
0.14015679 0.06698606 0  
-0.06698606 0.14015679 0  
-0.1387125 -0.34573975 0  
0.34573975 -0.1387125 0  
0.1387125 0.34573975 0  
-0.34573975 0.1387125 0  
0.14046866 -0.34602854 0  
0.34602854 0.14046866 0  
-0.14046866 0.34602854 0  
-0.34602854 -0.14046866 0  
-0.05869875 -0.16617337 0  
0.18217777 -0.061504476 0  
0.062312964 0.18362015 0  
-0.18362015 0.062312964 0  
-0.034321424 -0.38563195 0  
0.38563195 -0.034321424 0  
0.034321424 0.38563195 0  
-0.38563195 0.034321424 0  
0.39586002 -0.2428538 0  
0.2428538 0.39586002 0  
-0.39586002 0.2428538 0  
-0.2428538 -0.39586002 0  
0.23688246 -0.38952246 0  
0.38952246 0.23688246 0  
-0.23688246 0.38952246 0  
-0.38952246 -0.23688246 0  
-0.24287231 -0.09948847 0  
0.09948847 -0.24287231 0  
0.24287231 0.09948847 0  
-0.09948847 0.24287231 0  
-0.11560815 -0.24300627 0  
0.24300627 -0.11560815 0  
0.11560815 0.24300627 0  
-0.24300627 0.11560815 0  
-0.40192315 -0.4008276 0  
0.4008276 -0.40192315 0  
0.40192315 0.4008276 0  
-0.4008276 0.40192315 0  
0.06409326 -0.40289903 0  
0.40289903 0.06409326 0  
-0.06409326 0.40289903 0  
-0.40289903 -0.06409326 0  
0.2962961 -0.23982804 0  
0.23982804 0.2962961 0  
-0.2962961 0.23982804 0  
-0.23982804 -0.2962961 0  
-0.28087237 -0.21196799 0  
0.21196799 -0.28087237 0  
0.28087237 0.21196799 0  
-0.21196799 0.28087237 0  
-0.0901279 0.007867504 0  
-0.05002927 -0.07494272 0  
0.0873353 -0.009871756 0  
0.0071518295 0.09216282 0  
-0.14120433 -0.1484696 0  
-0.14581114 0.13960092 0  
0.1458264 -0.14505939 0  
0.13960092 0.14581114 0  
0.41838804 -0.3182741 0  
0.3182741 0.41838804 0  
-0.41838804 0.3182741 0  
-0.3182741 -0.41838804 0  
0.32118136 -0.41712493 0  
0.41712493 0.32118136 0  
-0.32118136 0.41712493 0  
-0.41712493 -0.32118136 0  
-0.19707234 -0.014843048 0  
0.018050108 -0.20183705 0  
0.19707234 0.014843048 0  
-0.014843048 0.19707234 0  
-0.10938372 -0.41847488 0  
0.41847488 -0.10938372 0  
0.10938372 0.41847488 0  
-0.41847488 0.10938372 0  
0.15773043 -0.4267032 0  
0.4267032 0.15773043 0  
-0.15773043 0.4267032 0  
-0.4267032 -0.15773043 0  
-0.3204562 -0.07174808 0  
0.07174808 -0.3204562 0  
0.3204562 0.07174808 0  
-0.07174808 0.3204562 0  
0.02801032 -0.07269879 0  
-0.31817523 0.069836795 0  
-0.069836795 -0.31817523 0  
0.31817523 -0.069836795 0  
0.069836795 0.31817523 0  
0.43106207 -0.17757268 0  
0.17757268 0.43106207 0  
-0.43106207 0.17757268 0  
-0.17757268 -0.43106207 0  
0.0703783 0.071201205 0  
-0.051593844 0.064346604 0  
0.099701226 -0.08333426 0  
0.2863281 -0.17248559 0  
0.17248559 0.2863281 0  
-0.2863281 0.17248559 0  
-0.17248559 -0.2863281 0  
-0.2341888 0.04979648 0  
-0.049194112 -0.231281 0  
0.23358595 -0.04946041 0  
0.04979648 0.2341888 0  
-0.009939441 -0.13691185 0  
-0.26560438 -0.17864102 0  
0.17864102 -0.26560438 0  
0.26560438 0.17864102 0  
-0.17864102 0.26560438 0  
0.013302229 -0.43510666 0  
0.43510666 0.013302229 0  
-0.013302229 0.43510666 0  
-0.43510666 -0.013302229 0  
0.09432827 0.114700764 0  
-0.11539384 0.093188405 0  
-0.3413634 -0.005100272 0  
0.005100272 -0.3413634 0  
0.3413634 0.005100272 0  
-0.005100272 0.3413634 0  
-0.19817708 -0.3508856 0  
0.3508856 -0.19817708 0  
0.19817708 0.3508856 0  
-0.3508856 0.19817708 0  
-0.34100306 -0.27216324 0  
0.27216324 -0.34100306 0  
0.34100306 0.27216324 0  
-0.27216324 0.34100306 0  
-0.20269383 -0.14403741 0  
0.14393912 -0.2028372 0  
0.2026342 0.14393856 0  
-0.14393856 0.2026342 0  
-0.1030633 -0.10524017 0  
-0.4394695 -0.104853734 0  
0.104853734 -0.4394695 0  
0.4394695 0.104853734 0  
-0.104853734 0.4394695 0  
-0.44156647 -0.44156647 0  
0.44156647 -0.44156647 0  
0.44156647 0.44156647 0  
-0.44156647 0.44156647 0  
-0.2683254 -0.44465622 0  
0.44465622 -0.2683254 0  
0.2683254 0.44465622 0  
-0.44465622 0.2683254 0  
0.2654342 -0.4435478 0  
0.4435478 0.2654342 0  
-0.2654342 0.4435478 0  
-0.4435478 -0.2654342 0  
-0.27373606 -0.34534052 0  
0.34534052 -0.27373606 0  
0.27373606 0.34534052 0  
-0.34534052 0.27373606 0  
-0.05307205 -0.4481981 0  
0.4481981 -0.05307205 0  
0.05307205 0.4481981 0  
-0.4481981 0.05307205 0  
-0.35614902 -0.19390328 0  
0.19390328 -0.35614902 0  
0.35614902 0.19390328 0  
-0.19390328 0.35614902 0  
-0.14022674 -0.012452113 0  
0.14171903 0.011271359 0  
-0.01125192 0.14089845 0  
-0.19556868 -0.06932378 0  
0.070511825 -0.19668652 0  
0.19556868 0.06932378 0  
-0.06932378 0.19556868 0  
-0.24951252 -0.039742906 0  
0.04037078 -0.2503529 0  
0.24951252 0.039742906 0  
-0.039742906 0.24951252 0  
0.44100407 -0.36164257 0  
0.36164257 0.44100407 0  
-0.44100407 0.36164257 0  
-0.36164257 -0.44100407 0  
-0.4451273 -0.36589316 0  
0.36589316 -0.4451273 0  
0.4451273 0.36589316 0  
-0.36589316 0.4451273 0  
0.1121834 -0.30242515 0  
0.30242515 0.1121834 0  
-0.1121834 0.30242515 0  
-0.30242515 -0.1121834 0  
-0.115146436 -0.19087775 0  
0.19190264 -0.11309679 0  
0.11520548 0.19263776 0  
-0.19263776 0.11520548 0  
-0.08287991 -0.37025127 0  
0.37025127 -0.08287991 0  
0.08287991 0.37025127 0  
-0.37025127 0.08287991 0  
0.23791528 -0.24381089 0  
0.24381089 0.23791528 0  
-0.23791528 0.24381089 0  
-0.24381089 -0.23791528 0  
-0.44626984 -0.21174923 0  
0.21174923 -0.44626984 0  
0.44626984 0.21174923 0  
-0.21174923 0.44626984 0  
0.35174853 -0.37705234 0  
0.37705234 0.35174853 0  
-0.35174853 0.37705234 0  
-0.37705234 -0.35174853 0  
-0.048605647 -0.023262763 0  
-0.1551113 -0.21381997 0  
0.21381997 -0.1551113 0  
0.1551113 0.21381997 0  
-0.21381997 0.1551113 0  
-0.29403278 -0.30027482 0  
0.30027482 -0.29403278 0  
0.29403278 0.30027482 0  
-0.30027482 0.29403278 0  
0.12173745 -0.390654 0  
0.390654 0.12173745 0  
-0.12173745 0.390654 0  
-0.390654 -0.12173745 0  
-0.12236246 -0.2979882 0  
0.2979882 -0.12236246 0  
0.12236246 0.2979882 0  
-0.2979882 0.12236246 0  
-0.0945969 -0.046371013 0  
0.035276897 -0.027358124 0  
-0.0076714605 0.051946 0  
-0.30809116 -0.17165439 0  
0.17165439 -0.30809116 0  
0.30809116 0.17165439 0  
-0.17165439 0.30809116 0  
-0.16592422 -0.10879113 0  
0.10700909 -0.1687818 0  
0.16864619 0.10664837 0  
-0.10664837 0.16864619 0  
-0.16784625 -0.38069874 0  
0.38069874 -0.16784625 0  
0.16784625 0.38069874 0  
-0.38069874 0.16784625 0  
-0.4563872 -0.05993889 0  
0.05993889 -0.4563872 0  
0.4563872 0.05993889 0  
-0.05993889 0.4563872 0  
0.31103167 -0.37412483 0  
0.37412483 0.31103167 0  
-0.31103167 0.37412483 0  
-0.37412483 -0.31103167 0  
-0.3909646 -0.012754724 0  
0.012754724 -0.3909646 0  
0.3909646 0.012754724 0  
-0.012754724 0.3909646 0  
0.44915667 -0.21679194 0  
0.21679194 0.44915667 0  
-0.44915667 0.21679194 0  
-0.21679194 -0.44915667 0  
0.045831423 0.12033131 0  
-0.12662303 0.045442794 0  
-0.3107799 -0.37355793 0  
0.37355793 -0.3107799 0  
0.3107799 0.37355793 0  
-0.37355793 0.3107799 0  
0.04152367 0.021693805 0  
-0.08040017 -0.2675595 0  
0.26794365 -0.08044455 0  
0.080500565 0.2680441 0  
-0.2680441 0.080500565 0  
-0.13753757 -0.45578164 0  
0.45578164 -0.13753757 0  
0.13753757 0.45578164 0  
-0.45578164 0.13753757 0  
-0.05507968 -0.12135967 0  
0.14172421 -0.09428923 0  
0.2571752 -0.19664502 0  
[...]
POINT_DATA 2173 
SCALARS T float 
LOOKUP_TABLE default 
1.1068377594010333e-17 
1.3446015375567236e-19 
2.871501790816281e-19 
3.8615849119320804e-19 
-4.8404622490835656e-18 
-1.9207118936521594e-17 
7.898841899726904e-16 
-2.2201747702341858e-16 
-2.9734684068776554e-16 
-4.663201486538402e-16 
-2.1722813872250985e-16 
7.762047682801531e-16 
-1.8195178451094305e-16 
5.118398182839451e-16 
-1.3232946907685929e-15 
6.688365938005105e-17 
-1.3540464686631493e-16 
6.836288592865019e-17 
2.499551813880417e-15 
-7.387664315301891e-16 
4.2301277972540387e-16 
7.293187352146445e-16 
5.4547113967511985e-17 
-3.7699937181111043e-16 
2.08908477755049e-16 
1.697023081755681e-16 
-8.199128451652175e-16 
1.2658493055925045e-15 
1.757081668996359e-16 
1.7298545929797257e-16 
2.302649857348123e-16 
-6.807977543350208e-17 
1.3618656003240897e-16 
-4.2373730625891753e-16 
-3.6248028656865166e-16 
-3.4720769557735753e-16 
-7.734891874677676e-17 
-1.0854216827043779e-16 
-1.7266864181515783e-17 
-2.344562200467157e-18 
5.980719863124844e-19 
-1.1000935014901133e-19 
9.143860915704645e-19 
-6.224307197046755e-19 
1.4809109572079937e-19 
4.337255273616436e-18 
3.5357976273023864e-20 
-2.4647492410847485e-19 
-5.249307604494767e-18 
-7.640932842584492e-18 
-1.1485843709609429e-17 
-2.1002568382610484e-17 
1.8479160573191798e-17 
-3.242045558093406e-18 
5.295920208278575e-19 
1.1169044693720993e-18 
-2.424131548748339e-18 
5.350419624467864e-18 
-4.426909236328669e-18 
2.700225731576555e-18 
-1.7825102253622237e-18 
1.6419221762128394e-19 
3.5959183922602685e-19 
-6.955360475837538e-19 
1.1095805160717432e-18 
-9.345546756151794e-19 
-2.935062200833222e-18 
1.1980771727851037e-17 
-2.57857720916209e-18 
3.1198432698283677e-18 
4.0288973712960736e-18 
-1.2119211948417416e-17 
8.258538385177784e-18 
-1.3317032007683549e-17 
-1.7339014350616023e-17 
8.689309957294534e-18 
6.217817523426299e-18 
-2.150951474253778e-18 
-7.155656879760695e-18 
1.8066530168250264e-19 
-2.617082576567247e-19 
-2.740801383142377e-18 
3.1749851806898527e-18 
-5.448452124351653e-18 
-2.995704477087389e-19 
-4.70733570509611e-18 
8.836285276280474e-18 
1.590961418883514e-17 
1.138943601184191e-17 
-7.320101984254174e-18 
-2.811114631982422e-17 
4.1511221902962664e-17 
-4.1149268099812654e-17 
1.4208212464721264e-17 
7.455266178717559e-18 
-4.1132645353682504e-18 
1.1997048279449017e-17 
-2.29840719852594e-17 
2.788709316798175e-17 
-2.4949111101022984e-17 
1.3752480385116277e-17 
-1.2123796003099685e-17 
-3.6477836245431216e-19 
2.0140396347888476e-17 
-5.569838606007309e-17 
-1.5079423338314138e-17 
7.47617331434199e-17 
-3.674721251700446e-17 
2.3656839308849697e-17 
1.1527201484264947e-17 
-9.281532120146686e-17 
1.138835023299117e-16 
1.0436479274208049e-18 
2.1307447441999774e-17 
-1.4184344993045634e-17 
-6.28839476040682e-17 
-9.141621704320866e-17 
-7.588299547865541e-17 
-6.8472936513507445e-19 
-3.108192928518099e-17 
-3.127324954554156e-17 
2.974107373662533e-17 
2.6360410273379764e-17 
-1.3318673305410771e-17 
8.480641203674504e-17 
9.932959442421331e-17 
6.289747032657368e-17 
-6.19231357003327e-20 
-5.707066404641626e-17 
-4.194858505973719e-17 
-5.910030704763699e-17 
-4.2059800573399276e-17 
3.269158178619793e-19 
-3.8747775210402455e-17 
1.3564949220485397e-16 
-5.262735718350844e-17 
1.291316457888574e-16 
-9.801218570067798e-17 
-8.165870028885352e-17 
2.072371853720219e-16 
1.1500932648921473e-17 
-1.657718578231845e-16 
3.1230994240889184e-16 
-3.478412124906157e-16 
6.90811416208989e-16 
-9.148180566564336e-17 
1.3269404144813218e-16 
5.0822808117645954e-17 
-1.6709223261487108e-16 
3.423055025113277e-16 
-2.352431832458942e-16 
-4.995161616928394e-18 
-1.7641274612686097e-16 
1.22350539446957e-16 
-7.139140674466037e-16 
-7.768448891146339e-17 
2.133136876887462e-16 
-2.8421208583446215e-16 
1.436070955072474e-16 
5.663048099945234e-17 
-2.2131608639203363e-6 
-0.00047986497438578276 
0.5139092613260752 
1.683622686567751e-5 
-0.00010225323084427846 
0.00014383488724756377 
0.0039004776926260666 
-2.288672265435525e-5 
1.0025866264667688e-5 
-0.0001777124457060027 
-6.078378292312714e-7 
8.634164264383141e-5 
0.0004279544706544407 
-0.00034351164236141375 
0.0670593061162912 
-1.902460948834898e-6 
-3.7085816571542475e-6 
-0.0010644472476925475 
0.0006355911244132614 
1.3793214960141147e-5 
-9.294345960958346e-5 
0.007279930614300491 
3.591611982772674e-6 
-6.876839015672914e-6 
-0.00017955843476391618 
0.0012867958316708783 
0.03664143956848664 
1.4885752031944893e-6 
-6.131926211916746e-5 
-0.0028294366893222333 
-3.998917145256279e-6 
-4.997850123595358e-6 
8.750287608489306e-5 
5.567261601248116e-5 
4.3593196790367196e-6 
-4.151940334032838e-5 
-0.0005916835570428654 
-0.0007668309573394606 
2.3665038079204975e-6 
7.960434000141447e-6 
-1.0902367795750873e-5 
0.00016442144388169945 
0.17653647131499292 
6.285084652248179e-7 
1.6222903647729576e-5 
0.0004724898768428204 
0.10174415808483081 
-4.951546444772561e-6 
0.0001015513922360177 
-6.162817106843314e-5 
-1.3932427113240634e-5 
3.828498582618783e-6 
1.7124772682227386e-5 
-0.0014989684064847643 
2.363416223464701e-6 
-1.0892728477639153e-5 
-0.00033696940232256763 
0.012731845000343236 
6.837980108929904e-6 
-6.318070115495409e-5 
-0.00042230994234323746 
0.00029916151259598485 
0.08681248512605223 
-1.0457060700252623e-6 
-3.7799741002059166e-6 
0.00010000177020373238 
0.0011266946960257157 
0.00025176062196816666 
5.131373326736323e-6 
0.0004017944029610623 
2.638892083851603e-5 
0.5105629689819577 
4.399748344790009e-6 
3.1876876880240627e-6 
4.029295620234551e-6 
3.616534611687395e-5 
-9.359325107130137e-5 
-0.0002055754789644391 
-6.668105040765416e-6 
2.6328529494735807e-5 
-0.00025426424908383383 
0.0001144009441548099 
0.007753032363325807 
7.584307319241224e-5 
-1.4937180592939765e-5 
-0.0023450336972818094 
-6.245689414301665e-6 
2.0101830721130434e-5 
1.386091193513134e-5 
0.00020540819970459013 
3.248410121225691e-6 
5.0639627156537516e-6 
8.907016211020087e-5 
-0.00046448152259877116 
0.0022016044581821574 
6.578777424770472e-6 
-5.709321612649221e-5 
0.001090334179319514 
1.3992247993767431e-5 
-0.0013552028588635092 
0.0003413248553829696 
-1.1860687827891472e-5 
1.003395409557381e-6 
-7.586563368240558e-6 
-5.3732557188701746e-5 
-0.0011913522249055596 
-8.517887058472796e-6 
1.1614820612015073e-5 
0.0400772519332198 
0.049539126907878185 
1.0832952560122576e-5 
3.418784314761511e-5 
0.00015165683302491317 
-8.43542070665132e-5 
0.003914455247538291 
0.009141967513243626 
1.4225931774214138e-5 
0.0021327273139155555 
-0.0004859780536946033 
0.223846482452514 
4.9905185374733835e-6 
-7.840920616485022e-6 
-0.0015182870089609055 
-2.672298205502116e-6 
3.7572010996131045e-6 
-4.7637470302437875e-5 
3.878698230780507e-6 
2.943738281306489e-5 
-0.00020989822320056898 
0.00017158378561895758 
-4.665794937335458e-6 
-1.8004537530333764e-5 
-0.0013613568909520855 
0.0005317699010594495 
4.194504117858453e-6 
-1.3679483368703462e-5 
-0.0003340536672271862 
-0.00015316795303984174 
-2.0443417836463947e-6 
7.783672096599433e-6 
-0.0003819077925184615 
0.684861764033948 
2.2323707203683345e-6 
5.2912847869874356e-6 
0.001023604165862867 
0.00014417057025303885 
6.156249099253765e-5 
-3.317448093066822e-6 
2.463919534945093e-5 
-4.10488012941556e-5 
-2.1927954493303423e-6 
6.097073416603412e-7 
2.489664134784965e-5 
-0.0009332010608364767 
2.0394915911517546e-5 
-9.342364736950103e-6 
4.192092153865162e-5 
-0.0003495303005200987 
4.830658850883606e-7 
6.40497761176971e-5 
-0.0002553134956586503 
-0.00041392778587963976 
-0.00013878617396071333 
5.724532014113782e-6 
-3.981276775197272e-5 
-8.076369802598868e-5 
-4.63467589651074e-7 
9.536398544165628e-6 
-3.886706586934112e-5 
0.00029137910952596407 
0.00041149676821802534 
-4.896522777850545e-6 
2.11286500369133e-5 
0.0005031046769313401 
0.00012826190513007683 
2.6547129131026098e-5 
-0.00027009728752438637 
0.12484814421036672 
1.6959880984236993e-7 
-1.8364271152094877e-6 
-0.00019189689817983985 
0.020032951935574774 
-6.206567813736881e-6 
1.3481775479011767e-5 
-1.7617560360732975e-5 
-9.913035135861112e-6 
5.058526221735105e-5 
-0.0004278622687439529 
-0.00040789968756437423 
-5.842593111302924e-5 
-3.225469998286568e-6 
5.891428950090793e-5 
0.02525603746970051 
-2.6158951306933987e-6 
3.986012591129823e-5 
0.00023327617757441482 
0.0016719372100499627 
0.2506552179797432 
-2.514499442985121e-6 
-2.4664346717272913e-5 
-0.0011526382945519751 
-3.6992884962560814e-5 
-3.0865256998089755e-6 
-9.533681529418677e-5 
0.14339814708928797 
1.877943673684039e-6 
-2.5772473809373985e-5 
0.0002881149097996137 
4.029146332086308e-6 
-0.00010184550832359143 
-9.03159951277631e-6 
-3.387730839862616e-5 
8.988379185925673e-5 
6.9802131235551225e-6 
-3.2180430893398606e-5 
1.7720176494141696e-5 
7.500932067332937e-5 
0.0009690121062332789 
0.42071152348551166 
-1.1953201158899158e-5 
1.967451669576241e-5 
0.00017407509815011774 
0.0012618436985897537 
7.774829025034414e-6 
-5.565589969366175e-5 
-0.00027181672777368287 
3.325420473819995e-6 
-1.0109475717800656e-5 
-0.00017612085844734144 
-0.003181506236194861 
0.013280740381531 
2.135515559294847e-5 
-0.0001901323584810461 
0.0011439440627513222 
0.00010175373877439126 
-2.403480381434672e-6 
-2.3684832536129854e-5 
0.0419259313725723 
-1.2191873422233013e-6 
3.0114828110247445e-5 
0.0012729180664175573 
0.3684594567988324 
-4.9827668379388994e-6 
4.005548623757342e-5 
-0.0008609511339233094 
-2.850621127865846e-5 
1.1265012607659084e-5 
-0.00019482055639483795 
6.842884468384172e-6 
-0.00017894996448995396 
-1.6061428620116846e-7 
-1.6240326105228803e-5 
-0.00033020805115747444 
-6.071652232457068e-6 
1.8463727047361503e-5 
-0.00019700199298239564 
0.00010759634798115182 
-0.0013814054114636765 
-2.1599755849532886e-6 
3.7858756274293436e-5 
9.94131902401817e-6 
2.2346241275246445e-5 
7.629223026139899e-5 
-0.00010374754981662851 
1.1815397484856264e-5 
5.3850375410988985e-5 
-4.591970910679966e-6 
-0.00011598428793096857 
8.08717445313234e-6 
-8.34866823394604e-6 
8.728692016630996e-7 
-0.0031351181221973604 
0.012733430032893928 
1.4612807227863704e-5 
-3.611000507753176e-5 
-0.0017962327823780701 
-1.824168751142355e-6 
2.371087946520481e-5 
-4.2434875606917285e-6 
0.0006848984640080943 
0.13434098157235536 
0.15289134056716275 
1.8561962075033064e-6 
-9.348866188916786e-5 
-0.0009614457087926607 
0.008349242291580638 
8.25172798632943e-5 
0.00022291108374921666 
9.358642502904532e-6 
5.518369925859796e-6 
-1.807211666154526e-5 
-8.993611681584976e-6 
-1.965822195731451e-5 
6.455652000590745e-6 
-2.1926214930106946e-5 
4.061738911250396e-5 
1.1523047009510313e-5 
1.3292459151907576e-5 
2.7571222050225308e-5 
1.7389859749295618e-6 
7.554799927122144e-7 
0.00023452650033436388 
0.016682226806761923 
3.8902280636598085e-6 
1.0133218128858572e-8 
1.258000797122393e-6 
0.15930431633094277 
0.00041148797644643736 
-0.00538623085058261 
0.003654839612070703 
4.73104633756088e-6 
-0.00015459338009675674 
-5.575429717947416e-5 
-0.0003123832845071593 
0.00034124037644163744 
4.061938885955759e-6 
8.443555735683237e-5 
-1.652033419495402e-5 
-1.1077026854154677e-5 
-2.8730032551290437e-5 
0.021546428636733755 
0.018096295264708875 
0.003862389798105687 
-2.8683825606778074e-6 
5.913733119102509e-6 
0.00016568068001304994 
-0.0005576727615305001 
-9.029801763031528e-5 
6.725918692140819e-6 
7.348510400433085e-6 
-0.00013053333733256038 
-9.490391360796107e-6 
0.0011705949767508695 
-3.9173760881404024e-5 
1.4559467152141803e-5 
-0.0005131504412992533 
-1.9973231818482836e-6 
-4.673802155621512e-6 
-5.110353419465562e-5 
-0.008023916005695539 
-1.5009265925200156e-6 
-3.0579111264593645e-6 
0.000227660730322138 
-0.00019361573130357118 
-0.002191172093706678 
1.96020803273019e-6 
-4.574885879902007e-6 
0.0003099834663199709 
-3.884679545682168e-6 
0.7345491903574641 
7.119252255863221e-7 
-8.789282878966874e-5 
-2.094861217316e-6 
1.641972128058189e-5 
-0.0002056235172481907 
-0.0006167537999572908 
-2.003113217121383e-5 
6.436629313779474e-6 
-8.214470969789478e-5 
0.0007426532879961982 
-5.480918089725383e-7 
9.529530198830974e-6 
-0.00011494194060248371 
5.424456991964279e-5 
-0.0013559440682065097 
-4.006061574533021e-6 
-3.28405337373001e-5 
-2.5395496632449313e-6 
-1.7304938515993453e-7 
1.652043101311457e-5 
-0.00040193454831060065 
4.82343192674837e-6 
-4.383551074717449e-7 
1.2182652727842428e-5 
2.9638203830768927e-5 
-0.00017034430210767263 
-0.0030124877804208563 
0.00029496610942392177 
1.6316302415879784e-5 
0.0004267825636307193 
-5.546402863801516e-6 
-1.9271351603562955e-5 
-9.074453071442925e-6 
5.001555701530942e-5 
-6.441709551422891e-5 
-0.0032534117937077257 
-4.150032697264429e-6 
-8.287192402601637e-6 
0.00024053334577574394 
-0.0017728126055452838 
-3.222856146427421e-6 
8.648915074161584e-6 
0.0044507051167156295 
-0.001064765306222165 
0.31583481388754125 
-2.588682699086445e-7 
-2.2026728293604778e-5 
4.447692676904542e-6 
4.406431189345021e-6 
3.167977638554648e-5 
0.001314327115818471 
7.326978122082429e-6 
-0.0008627916102976564 
0.37641483985976565 
4.397116449196276e-6 
3.9287412091090085e-5 
-0.0009403405370528725 
3.6830039337416233e-7 
-2.1903729596398803e-5 
-0.00028827198975035025 
0.14570494969432982 
2.222676161569373e-5 
-9.567357997708081e-5 
-0.00013860212296580213 
-1.0321302768309357e-5 
-0.00010110645960216929 
0.01692572422194798 
-1.5150804531895366e-6 
-9.809560951846792e-6 
-0.0002325126743742174 
-0.00011065830704318163 
-0.0012802235182110126 
0.0006120294449988018 
4.410523151900799e-6 
0.00029274557241433215 
0.004693306195154315 
4.800266281470401e-6 
-3.483993796783338e-6 
-0.0022266337181089148 
0.06238085946747523 
4.332289835714942e-6 
-7.228889037398778e-5 
0.00048675101328310243 
2.8909505272474676e-6 
-9.894723730049168e-5 
-0.00020255873225168605 
-0.00013522399818720156 
1.6162406856529348e-5 
8.869882834187056e-6 
6.662523287773292e-5 
-0.00045549932088427585 
0.005269820433180954 
-1.4311930291938085e-6 
-4.4097560981253456e-5 
0.00026236741755208823 
0.01134791626718942 
5.817694709505435e-6 
1.3008579400010095e-5 
7.0771956441537065e-6 
0.0001005689595995588 
3.403435219328934e-5 
4.709261607324531e-6 
1.1256643644494978e-5 
-5.837845214697599e-5 
-0.00018618541117964131 
-1.168112202505842e-6 
-3.875048492095588e-6 
1.5688552373113442e-5 
-0.00047503271459420007 
0.2389645869088043 
1.44698482548463e-6 
2.6253433007704854e-5 
-0.0002043099899429814 
0.002983051930477429 
3.2933282805365547e-6 
-8.21350072713553e-5 
0.0057715946694911376 
-0.0003070886007537707 
-1.1567400984535731e-5 
2.1626288743971993e-5 
-0.00010660571041961588 
-0.0004604499346931141 
0.0002666998158033227 
-8.066094989089266e-5 
8.038972126612625e-6 
-7.6542187387528e-6 
0.5772776214464027 
-1.481216814189778e-6 
1.3083201931730079e-5 
-0.0002695838428893621 
0.001228560107908714 
1.4223217179327305e-7 
-2.069301578536365e-5 
-0.00022236447238691028 
8.804230951465812e-5 
-0.000881267966125134 
-0.0010293527397647712 
0.6015620919257699 
0.3583612431508821 
0.5035444388305672 
6.247318149119627e-6 
6.2980988947686e-6 
-4.266236806630457e-6 
-8.424115410664483e-5 
2.556838661409437e-5 
8.669732021935811e-5 
0.00131907613035032 
0.001770318491730748 
-0.003638498941735914 
0.006101364290850633 
0.012951270136913818 
0.020834197389903834 
-1.883142282066168e-5 
1.9186051588026943e-5 
-5.2945194139419785e-6 
0.00022506829611450255 
-0.00024137271429504914 
1.1475537381855009e-5 
0.0001435432717129531 
-0.0007934494566479249 
-6.175886966516959e-5 
6.757420046393618e-5 
0.6730640308099122 
0.4088196658138595 
7.602264465932948e-6 
-1.738887233326418e-6 
2.473650577937106e-5 
-1.744920111691397e-5 
-0.0014227609186434273 
0.003634489558286353 
0.02694174497574911 
0.053787981240369175 
1.75612770121173e-6 
-2.4301781364556715e-6 
4.3975405476533036e-7 
-1.0390137515260276e-5 
2.7044028610912254e-6 
0.00011935508094250327 
-0.000969913904388463 
0.0003537504668689188 
0.0002236095087344608 
-0.0006005734642925411 
0.0001766946357371366 
-0.0005793926994363983 
0.0005207623022304237 
-2.5127912479439893e-5 
-1.3493724743858988e-5 
3.704502966389406e-5 
1.1106632885847687e-5 
-3.8016674167282327e-6 
-1.2021615842887452e-5 
6.317336946821673e-6 
4.0612202159431024e-5 
-1.0823437420442298e-5 
0.00039006913259752773 
-0.00012683330880977525 
1.659363605868818e-5 
1.4734356486100012e-6 
-6.7771318988689315e-6 
4.778452726489147e-6 
2.4012260067158506e-5 
4.830247667131639e-5 
-0.00015365978080858305 
-0.00011228939703219595 
1.2331279478210293e-7 
-5.655050342733596e-8 
1.5987751430844815e-5 
-3.6854439453037e-6 
2.5959714639800956e-5 
4.745773665592723e-5 
-0.0001409204354223764 
0.000151616293747839 
-2.1275453817849642e-6 
0.004916700433187867 
0.0024870288888959114 
-0.004089030768549373 
4.642722337266373e-5 
-3.818436345403207e-5 
-1.5973388396269784e-5 
-1.666922505990863e-5 
1.2916153822818879e-5 
8.884990463691119e-6 
-8.128814354656953e-6 
9.861665484060764e-6 
-6.9450302976077255e-6 
-1.0863256392012607e-5 
1.795959144384362e-5 
-3.301718283576126e-6 
-1.0321533738155383e-5 
2.4342287080207532e-5 
-1.726366077472428e-5 
-3.607009079202744e-5 
7.215764010118584e-5 
0.0003543685491918345 
0.00012349997630297857 
1.682367973238087e-5 
0.00018144091267261267 
8.004623243914695e-6 
-9.80330546021739e-6 
5.407563338503673e-6 
-1.0388238228079758e-6 
-2.6656782164644814e-5 
-9.320666605410947e-6 
7.537011757945597e-5 
9.7559598388502e-6 
2.089234576317789e-5 
0.0001228101999624017 
1.111369440956429e-5 
1.7531686716227477e-5 
-2.5687507051409662e-5 
0.00019912722677535217 
-2.442432466509388e-6 
-4.880366499137806e-5 
7.623296057147442e-5 
-0.00015100578448782015 
-5.416724735808539e-5 
-1.0094920286644077e-7 
6.089284643438781e-6 
4.429047661327381e-5 
4.871210902252023e-5 
2.6605852192612467e-5 
-0.0001559000907508213 
0.00031923192989249976 
-0.0006126958264257133 
-0.0004572603469070126 
9.456294127816561e-5 
5.4073153146697474e-5 
5.126281315676792e-5 
-4.7576559285355175e-6 
3.350167411357088e-6 
2.8678866935466903e-6 
2.7636924645894615e-5 
-2.487926607918499e-5 
-0.00022491074146216067 
0.00032971443860703794 
-6.634641900541042e-6 
3.672899196360805e-7 
-7.54259685190064e-6 
4.7317584114900045e-6 
1.581600116801956e-5 
-3.3178433572010366e-5 
-0.00012556887163319905 
9.943646746606912e-5 
-0.001382508394356245 
-0.0002636572157728384 
-8.477981190495974e-6 
-1.3571718029561907e-5 
-1.4147890918695763e-5 
-2.0073179071783542e-7 
-0.0005723558326128222 
0.0001454269898221216 
0.0006250521788689804 
-0.0006276999972569304 
0.0001119251944907131 
0.0011966855992479831 
-9.23735176653097e-6 
2.337928968547833e-7 
8.621004709912962e-6 
-8.810755569066128e-8 
-3.3890954115740485e-5 
-2.886974195080512e-6 
-1.1232922062191842e-6 
-1.104163229917915e-6 
-0.0008758930414667683 
0.0001892568355298326 
-1.3207207243839773e-5 
-6.470339875473582e-5 
-5.102668227888934e-6 
3.702648645047381e-6 
-8.788127855053474e-5 
4.24267254930709e-6 
0.0009460777986597727 
-6.0314550865546536e-5 
-0.0011864929741257438 
-5.695416159422139e-6 
2.6615848723518145e-6 
2.6085225263536636e-6 
2.4883448991059585e-5 
-6.816506387933482e-6 
-2.4417188983646752e-5 
0.0002820851588600807 
-8.834763415514874e-5 
-0.00028699842536741453 
0.00011839322675568689 
6.766103425741403e-5 
0.00012130083477822638 
-2.3453169556798244e-6 
-7.345959263602155e-7 
6.6292152144402804e-6 
-5.153742491256052e-5 
3.0795623182500347e-5 
-4.935138469833219e-5 
-0.0004288565405250953 
0.00016195917065517468 
-0.00023649581112785589 
-6.36201562655635e-6 
0.00011467738286079774 
-0.0001312798223993168 
0.0004454894212108339 
-7.83140260749272e-7 
6.041751319901684e-7 
3.204561847860719e-5 
8.853711664375259e-6 
-0.0012191982489305334 
-0.0016481072639299716 
0.0017818899083729682 
0.0004895422711608436 
0.0001405396055459763 
-0.00016441256969732923 
-6.784997060267608e-6 
-8.38476317041767e-7 