# vtk DataFile Version 3.0 
Unstructured Grid 
ASCII 
DATASET UNSTRUCTURED_GRID
POINTS 2173 float 
-0.5 -0.5 0  
0.5 -0.5 0  
0.5 0.5 0  
-0.5 0.5 0  
-0.475 -0.5 0  
-0.45 -0.5 0  
-0.425 -0.5 0  
-0.4 -0.5 0  
-0.375 -0.5 0  
-0.35 -0.5 0  
-0.325 -0.5 0  
-0.3 -0.5 0  
-0.275 -0.5 0  
-0.25 -0.5 0  
-0.225 -0.5 0  
-0.2 -0.5 0  
-0.175 -0.5 0  
-0.15 -0.5 0  
-0.125 -0.5 0  
-0.1 -0.5 0  
-0.075 -0.5 0  
-0.05 -0.5 0  
-0.025 -0.5 0  
-1.3761214e-12 -0.5 0  
0.025 -0.5 0  
0.05 -0.5 0  
0.075 -0.5 0  
0.1 -0.5 0  
0.125 -0.5 0  
0.15 -0.5 0  
0.175 -0.5 0  
0.2 -0.5 0  
0.225 -0.5 0  
0.25 -0.5 0  
0.275 -0.5 0  
0.3 -0.5 0  
0.325 -0.5 0  
0.35 -0.5 0  
0.375 -0.5 0  
0.4 -0.5 0  
0.425 -0.5 0  
0.45 -0.5 0  
0.475 -0.5 0  
0.5 -0.475 0  
0.5 -0.45 0  
0.5 -0.425 0  
0.5 -0.4 0  
0.5 -0.375 0  
0.5 -0.35 0  
0.5 -0.325 0  
0.5 -0.3 0  
0.5 -0.275 0  
0.5 -0.25 0  
0.5 -0.225 0  
0.5 -0.2 0  
0.5 -0.175 0  
0.5 -0.15 0  
0.5 -0.125 0  
0.5 -0.1 0  
0.5 -0.075 0  
0.5 -0.05 0  
0.5 -0.025 0  
0.5 -1.3761214e-12 0  
0.5 0.025 0  
0.5 0.05 0  
0.5 0.075 0  
0.5 0.1 0  
0.5 0.125 0  
0.5 0.15 0  
0.5 0.175 0  
0.5 0.2 0  
0.5 0.225 0  
0.5 0.25 0  
0.5 0.275 0  
0.5 0.3 0  
0.5 0.325 0  
0.5 0.35 0  
0.5 0.375 0  
0.5 0.4 0  
0.5 0.425 0  
0.5 0.45 0  
0.5 0.475 0  
0.475 0.5 0  
0.45 0.5 0  
0.425 0.5 0  
0.4 0.5 0  
0.375 0.5 0  
0.35 0.5 0  
0.325 0.5 0  
0.3 0.5 0  
0.275 0.5 0  
0.25 0.5 0  
0.225 0.5 0  
0.2 0.5 0  
0.175 0.5 0  
0.15 0.5 0  
0.125 0.5 0  
0.1 0.5 0  
0.075 0.5 0  
0.05 0.5 0  
0.025 0.5 0  
1.3761214e-12 0.5 0  
-0.025 0.5 0  
-0.05 0.5 0  
-0.075 0.5 0  
-0.1 0.5 0  
-0.125 0.5 0  
-0.15 0.5 0  
-0.175 0.5 0  
-0.2 0.5 0  
-0.225 0.5 0  
-0.25 0.5 0  
-0.275 0.5 0  
-0.3 0.5 0  
-0.325 0.5 0  
-0.35 0.5 0  
-0.375 0.5 0  
-0.4 0.5 0  
-0.425 0.5 0  
-0.45 0.5 0  
-0.475 0.5 0  
-0.5 0.475 0  
-0.5 0.45 0  
-0.5 0.425 0  
-0.5 0.4 0  
-0.5 0.375 0  
-0.5 0.35 0  
-0.5 0.325 0  
-0.5 0.3 0  
-0.5 0.275 0  
-0.5 0.25 0  
-0.5 0.225 0  
-0.5 0.2 0  
-0.5 0.175 0  
-0.5 0.15 0  
-0.5 0.125 0  
-0.5 0.1 0  
-0.5 0.075 0  
-0.5 0.05 0  
-0.5 0.025 0  
-0.5 1.3761214e-12 0  
-0.5 -0.025 0  
-0.5 -0.05 0  
-0.5 -0.075 0  
-0.5 -0.1 0  
-0.5 -0.125 0  
-0.5 -0.15 0  
-0.5 -0.175 0  
-0.5 -0.2 0  
-0.5 -0.225 0  
-0.5 -0.25 0  
-0.5 -0.275 0  
-0.5 -0.3 0  
-0.5 -0.325 0  
-0.5 -0.35 0  
-0.5 -0.375 0  
-0.5 -0.4 0  
-0.5 -0.425 0  
-0.5 -0.45 0  
-0.5 -0.475 0  
-0.002115384 -0.00023065208 0  
-0.20714286 -0.20714286 0  
0.20714286 -0.20714286 0  
0.20714286 0.20714286 0  
-0.20714286 0.20714286 0  
-0.28155318 -0.0017231192 0  
0.0017231192 -0.28155318 0  
0.28155318 0.0017231192 0  
-0.0017231192 0.28155318 0  
0.3319978 -0.33098683 0  
0.33098683 0.3319978 0  
-0.3319978 0.33098683 0  
-0.33098683 -0.3319978 0  
-0.14015679 -0.06698606 0  
0.06698606 -0.14015679 0  
0.14015679 0.06698606 0  
-0.06698606 0.14015679 0  
-0.1387125 -0.34573975 0  
0.34573975 -0.1387125 0  
0.1387125 0.34573975 0  
-0.34573975 0.1387125 0  
0.14046866 -0.34602854 0  
0.34602854 0.14046866 0  
-0.14046866 0.34602854 0  
-0.34602854 -0.14046866 0  
-0.05869875 -0.16617337 0  
0.18217777 -0.061504476 0  
0.062312964 0.18362015 0  
-0.18362015 0.062312964 0  
-0.034321424 -0.38563195 0  
0.38563195 -0.034321424 0  
0.034321424 0.38563195 0  
-0.38563195 0.034321424 0  
0.39586002 -0.2428538 0  
0.2428538 0.39586002 0  
-0.39586002 0.2428538 0  
-0.2428538 -0.39586002 0  
0.23688246 -0.38952246 0  
0.38952246 0.23688246 0  
-0.23688246 0.38952246 0  
-0.38952246 -0.23688246 0  
-0.24287231 -0.09948847 0  
0.09948847 -0.24287231 0  
0.24287231 0.09948847 0  
-0.09948847 0.24287231 0  
-0.11560815 -0.24300627 0  
0.24300627 -0.11560815 0  
0.11560815 0.24300627 0  
-0.24300627 0.11560815 0  
-0.40192315 -0.4008276 0  
0.4008276 -0.40192315 0  
0.40192315 0.4008276 0  
-0.4008276 0.40192315 0  
0.06409326 -0.40289903 0  
0.40289903 0.06409326 0  
-0.06409326 0.40289903 0  
-0.40289903 -0.06409326 0  
0.2962961 -0.23982804 0  
0.23982804 0.2962961 0  
-0.2962961 0.23982804 0  
-0.23982804 -0.2962961 0  
-0.28087237 -0.21196799 0  
0.21196799 -0.28087237 0  
0.28087237 0.21196799 0  
-0.21196799 0.28087237 0  
-0.0901279 0.007867504 0  
-0.05002927 -0.07494272 0  
0.0873353 -0.009871756 0  
0.0071518295 0.09216282 0  
-0.14120433 -0.1484696 0  
-0.14581114 0.13960092 0  
0.1458264 -0.14505939 0  
0.13960092 0.14581114 0  
0.41838804 -0.3182741 0  
0.3182741 0.41838804 0  
-0.41838804 0.3182741 0  
-0.3182741 -0.41838804 0  
0.32118136 -0.41712493 0  
0.41712493 0.32118136 0  
-0.32118136 0.41712493 0  
-0.41712493 -0.32118136 0  
-0.19707234 -0.014843048 0  
0.018050108 -0.20183705 0  
0.19707234 0.014843048 0  
-0.014843048 0.19707234 0  
-0.10938372 -0.41847488 0  
0.41847488 -0.10938372 0  
0.10938372 0.41847488 0  
-0.41847488 0.10938372 0  
0.15773043 -0.4267032 0  
0.4267032 0.15773043 0  
-0.15773043 0.4267032 0  
-0.4267032 -0.15773043 0  
-0.3204562 -0.07174808 0  
0.07174808 -0.3204562 0  
0.3204562 0.07174808 0  
-0.07174808 0.3204562 0  
0.02801032 -0.07269879 0  
-0.31817523 0.069836795 0  
-0.069836795 -0.31817523 0  
0.31817523 -0.069836795 0  
0.069836795 0.31817523 0  
0.43106207 -0.17757268 0  
0.17757268 0.43106207 0  
-0.43106207 0.17757268 0  
-0.17757268 -0.43106207 0  
0.0703783 0.071201205 0  
-0.051593844 0.064346604 0  
0.099701226 -0.08333426 0  
0.2863281 -0.17248559 0  
0.17248559 0.2863281 0  
-0.2863281 0.17248559 0  
-0.17248559 -0.2863281 0  
-0.2341888 0.04979648 0  
-0.049194112 -0.231281 0  
0.23358595 -0.04946041 0  
0.04979648 0.2341888 0  
-0.009939441 -0.13691185 0  
-0.26560438 -0.17864102 0  
0.17864102 -0.26560438 0  
0.26560438 0.17864102 0  
-0.17864102 0.26560438 0  
0.013302229 -0.43510666 0  
0.43510666 0.013302229 0  
-0.013302229 0.43510666 0  
-0.43510666 -0.013302229 0  
0.09432827 0.114700764 0  
-0.11539384 0.093188405 0  
-0.3413634 -0.005100272 0  
0.005100272 -0.3413634 0  
0.3413634 0.005100272 0  
-0.005100272 0.3413634 0  
-0.19817708 -0.3508856 0  
0.3508856 -0.19817708 0  
0.19817708 0.3508856 0  
-0.3508856 0.19817708 0  
-0.34100306 -0.27216324 0  
0.27216324 -0.34100306 0  
0.34100306 0.27216324 0  
-0.27216324 0.34100306 0  
-0.20269383 -0.14403741 0  
0.14393912 -0.2028372 0  
0.2026342 0.14393856 0  
-0.14393856 0.2026342 0  
-0.1030633 -0.10524017 0  
-0.4394695 -0.104853734 0  
0.104853734 -0.4394695 0  
0.4394695 0.104853734 0  
-0.104853734 0.4394695 0  
-0.44156647 -0.44156647 0  
0.44156647 -0.44156647 0  
0.44156647 0.44156647 0  
-0.44156647 0.44156647 0  
-0.2683254 -0.44465622 0  
0.44465622 -0.2683254 0  
0.2683254 0.44465622 0  
-0.44465622 0.2683254 0  
0.2654342 -0.4435478 0  
0.4435478 0.2654342 0  
-0.2654342 0.4435478 0  
-0.4435478 -0.2654342 0  
-0.27373606 -0.34534052 0  
0.34534052 -0.27373606 0  
0.27373606 0.34534052 0  
-0.34534052 0.27373606 0  
-0.05307205 -0.4481981 0  
0.4481981 -0.05307205 0  
0.05307205 0.4481981 0  
-0.4481981 0.05307205 0  
-0.35614902 -0.19390328 0  
0.19390328 -0.35614902 0  
0.35614902 0.19390328 0  
-0.19390328 0.35614902 0  
-0.14022674 -0.012452113 0  
0.14171903 0.011271359 0  
-0.01125192 0.14089845 0  
-0.19556868 -0.06932378 0  
0.070511825 -0.19668652 0  
0.19556868 0.06932378 0  
-0.06932378 0.19556868 0  
-0.24951252 -0.039742906 0  
0.04037078 -0.2503529 0  
0.24951252 0.039742906 0  
-0.039742906 0.24951252 0  
0.44100407 -0.36164257 0  
0.36164257 0.44100407 0  
-0.44100407 0.36164257 0  
-0.36164257 -0.44100407 0  
-0.4451273 -0.36589316 0  
0.36589316 -0.4451273 0  
0.4451273 0.36589316 0  
-0.36589316 0.4451273 0  
0.1121834 -0.30242515 0  
0.30242515 0.1121834 0  
-0.1121834 0.30242515 0  
-0.30242515 -0.1121834 0  
-0.115146436 -0.19087775 0  
0.19190264 -0.11309679 0  
0.11520548 0.19263776 0  
-0.19263776 0.11520548 0  
-0.08287991 -0.37025127 0  
0.37025127 -0.08287991 0  
0.08287991 0.37025127 0  
-0.37025127 0.08287991 0  
0.23791528 -0.24381089 0  
0.24381089 0.23791528 0  
-0.23791528 0.24381089 0  
-0.24381089 -0.23791528 0  
-0.44626984 -0.21174923 0  
0.21174923 -0.44626984 0  
0.44626984 0.21174923 0  
-0.21174923 0.44626984 0  
0.35174853 -0.37705234 0  
0.37705234 0.35174853 0  
-0.35174853 0.37705234 0  
-0.37705234 -0.35174853 0  
-0.048605647 -0.023262763 0  
-0.1551113 -0.21381997 0  
0.21381997 -0.1551113 0  
0.1551113 0.21381997 0  
-0.21381997 0.1551113 0  
-0.29403278 -0.30027482 0  
0.30027482 -0.29403278 0  
0.29403278 0.30027482 0  
-0.30027482 0.29403278 0  
0.12173745 -0.390654 0  
0.390654 0.12173745 0  
-0.12173745 0.390654 0  
-0.390654 -0.12173745 0  
-0.12236246 -0.2979882 0  
0.2979882 -0.12236246 0  
0.12236246 0.2979882 0  
-0.2979882 0.12236246 0  
-0.0945969 -0.046371013 0  
0.035276897 -0.027358124 0  
-0.0076714605 0.051946 0  
-0.30809116 -0.17165439 0  
0.17165439 -0.30809116 0  
0.30809116 0.17165439 0  
-0.17165439 0.30809116 0  
-0.16592422 -0.10879113 0  
0.10700909 -0.1687818 0  
0.16864619 0.10664837 0  
-0.10664837 0.16864619 0  
-0.16784625 -0.38069874 0  
0.38069874 -0.16784625 0  
0.16784625 0.38069874 0  
-0.38069874 0.16784625 0  
-0.4563872 -0.05993889 0  
0.05993889 -0.4563872 0  
0.4563872 0.05993889 0  
-0.05993889 0.4563872 0  
0.31103167 -0.37412483 0  
0.37412483 0.31103167 0  
-0.31103167 0.37412483 0  
-0.37412483 -0.31103167 0  
-0.3909646 -0.012754724 0  
0.012754724 -0.3909646 0  
0.3909646 0.012754724 0  
-0.012754724 0.3909646 0  
0.44915667 -0.21679194 0  
0.21679194 0.44915667 0  
-0.44915667 0.21679194 0  
-0.21679194 -0.44915667 0  
0.045831423 0.12033131 0  
-0.12662303 0.045442794 0  
-0.3107799 -0.37355793 0  
0.37355793 -0.3107799 0  
0.3107799 0.37355793 0  
-0.37355793 0.3107799 0  
0.04152367 0.021693805 0  
-0.08040017 -0.2675595 0  
0.26794365 -0.08044455 0  
0.080500565 0.2680441 0  
-0.2680441 0.080500565 0  
-0.13753757 -0.45578164 0  
0.45578164 -0.13753757 0  
0.13753757 0.45578164 0  
-0.45578164 0.13753757 0  
-0.05507968 -0.12135967 0  
0.14172421 -0.09428923 0  
0.2571752 -0.19664502 0  
[...]
POINT_DATA 2173 
SCALARS T float 
LOOKUP_TABLE default 
-5.774247263040107e-19 
2.287655243882058e-19 
2.1298491128124555e-19 
1.0527498030414382e-18 
-1.2747932506461676e-16 
-7.266289945802416e-17 
3.1466484508905967e-16 
1.8904633873545257e-17 
-1.7627574116723319e-16 
-5.020787070493539e-16 
-2.3950564465212094e-16 
-2.325668479431695e-17 
2.9686497637819123e-16 
1.592449104419112e-16 
-4.707323717812295e-16 
-4.2810287951186507e-16 
-7.222761867697797e-16 
-1.4830181643270955e-15 
2.0501214819853377e-15 
-6.232123085255466e-16 
1.217316510802513e-16 
-4.0086109603122186e-17 
1.0391843288694166e-15 
-1.2296072458703177e-15 
9.584441977468991e-16 
-6.227188579444625e-16 
-3.136189059252853e-16 
8.478970196623555e-16 
3.830276040988641e-16 
-1.8810684472956334e-16 
3.803086839326312e-16 
-1.4695753423301665e-16 
3.159922050980569e-16 
-6.55266678838746e-16 
-6.220013371075105e-16 
-7.824374209067355e-16 
-1.8771029555294746e-16 
-2.3416849281685253e-16 
-2.4049221606024737e-17 
-7.637670616642534e-23 
7.215473946642526e-18 
4.742683979156527e-18 
3.592837338997669e-18 
-2.513327860134496e-18 
-1.6118596481317715e-18 
7.612376623479768e-18 
-5.857390671285997e-19 
1.245799582762403e-18 
1.2685679134268085e-19 
-2.888299208897202e-17 
1.9949124014730673e-17 
-1.027128868274783e-16 
7.303422751135424e-17 
-1.334906199342594e-17 
2.8455918397736817e-18 
-1.230017493053251e-18 
2.084906485810842e-18 
7.270265291347728e-18 
-3.6475632011132046e-18 
1.7203644941409607e-18 
-8.103558451780377e-19 
-5.05864751615934e-19 
1.381616057974771e-18 
-1.4422050143440991e-18 
1.4965900632823194e-18 
-1.0012782856076696e-18 
-8.142897365512272e-18 
9.897180452024137e-18 
-2.296874070516731e-18 
6.78330720330859e-18 
5.208550225813821e-19 
-3.353427114033575e-18 
2.2057470359007616e-18 
-1.1017598848782703e-17 
-8.3103270800143e-18 
-2.3011455998708724e-18 
8.604272987862725e-18 
1.8495136450151512e-18 
3.4631718932339384e-19 
-1.641514860451433e-17 
2.0254259803315838e-18 
-2.980303570223012e-19 
9.728487716128587e-19 
-7.078170057040545e-18 
1.67077946534708e-17 
-1.5077794599684395e-17 
3.692858807696089e-18 
1.7209522807014008e-17 
1.3061483336673305e-17 
-1.1226324038612677e-17 
-2.147640410861181e-17 
2.720052086400586e-17 
-2.335055014290568e-17 
5.652767607385498e-18 
3.741628873994845e-18 
4.264958117449267e-18 
-4.8418430574366495e-18 
5.3675603937064256e-18 
-9.93301526557236e-18 
-8.261638605917848e-18 
3.24164073407162e-17 
-1.3579779221050352e-17 
-4.0289754775744135e-18 
2.2945322989563475e-17 
-5.4380887557068524e-17 
-1.459676171058542e-17 
5.3391182868836914e-17 
-6.6194501597223976e-18 
1.2531928459199993e-17 
2.928630945955412e-17 
-6.458088064612692e-17 
4.5603866453236045e-17 
3.8632128816786546e-17 
5.3252476308745313e-17 
3.4063481860954597e-18 
-3.244052731848651e-17 
-6.825231401074624e-17 
-5.861774538786843e-17 
-1.3784324297677472e-18 
-2.5173714026697422e-17 
-2.916061931921175e-17 
3.0352823880928883e-17 
2.5583751503835527e-17 
1.2228234998666314e-17 
6.736453071828821e-17 
8.663274713902283e-17 
6.042711413747513e-17 
3.942746732298197e-17 
1.2189056223872043e-17 
2.838257530444778e-17 
2.575910729471575e-17 
-3.368985678457448e-17 
3.638440372322838e-17 
-7.545491341982754e-17 
1.0280899316429131e-16 
-6.08376106762445e-17 
1.0818413483586575e-16 
1.190857953057558e-18 
-5.85282657552117e-17 
1.3058145143946807e-16 
-2.2830673417202093e-17 
-3.107065482782664e-18 
-5.0881687650189416e-18 
-1.7394895045798883e-17 
3.59967599753683e-16 
-8.518736830462845e-17 
9.088272733170291e-17 
1.5068897418554211e-16 
-1.9498709051242434e-16 
3.3027844550200164e-16 
-1.8945199618422252e-16 
1.0794801923442583e-17 
-3.120174503504677e-17 
1.0698380319753122e-17 
4.915865408993741e-17 
1.626788299279364e-16 
2.0038820972435138e-16 
-6.797995379742503e-17 
1.8724610632638725e-16 
1.586759962239937e-16 
-1.710243776063875e-6 
-0.0010907779445269942 
0.5276242539971626 
1.5660520077212306e-5 
-0.00011547366407043088 
2.405689565677525e-5 
0.0007005320182008831 
0.00022832381616483098 
7.3836450541725695e-6 
-0.00031462774146892846 
5.944710860671869e-7 
3.5693242155936205e-5 
0.00013667765713295139 
-0.0004529267074448655 
0.0413261891511387 
-5.499464510740798e-6 
4.8659210438198945e-6 
-0.0005243910908238404 
0.0036996110877069205 
4.643967083444081e-6 
-8.03565792337413e-5 
-0.0017530987121663923 
3.0503247621709178e-6 
-6.1101365514566375e-6 
-8.027289791396925e-5 
-0.00042880304580682254 
0.08660182870107178 
3.7585934673216388e-6 
8.374596548210513e-5 
-0.0024231978201182335 
-2.516661151734263e-5 
4.01665477669691e-6 
4.348429999419433e-5 
0.0001936918173127642 
-7.191492876571215e-7 
2.9444067223098007e-5 
-0.0008763440435763021 
-0.001118244306248233 
-1.7102956044382022e-6 
-7.100256810554043e-6 
-3.484046378358022e-5 
6.142542339979023e-5 
0.05802690921371402 
-1.395521506671876e-7 
2.8740239975088706e-5 
0.00015123186723197215 
0.23779015007242202 
-3.874892383812729e-6 
4.576584819370132e-5 
-1.7224831222529285e-6 
1.826937649863303e-5 
8.555503903529502e-6 
7.351969694510083e-6 
-0.0018479436090086858 
3.383757833929685e-6 
3.2154587932115307e-6 
-3.968117768079097e-5 
0.0209508569007529 
6.94964801680842e-6 
-6.248612602170456e-5 
-0.0006377671501416024 
-0.0001133499527020023 
0.05801472868999988 
3.7169101549572757e-6 
6.21948053797978e-6 
0.0001703720791511009 
0.0009123054742551485 
0.0005505646590092483 
7.600919349022422e-6 
0.0009845440617305163 
-2.0904431892012278e-5 
0.5187738196991392 
-1.297428415076295e-6 
6.677812403023852e-6 
6.599102029520401e-6 
2.17514253617562e-5 
0.00022540180157627716 
-0.0005294186996539973 
-5.744646449086099e-6 
3.910364594550555e-5 
-0.00036937985712031155 
0.0001725121183963616 
-0.001157546636933995 
0.0006958626907755173 
-2.894667464508008e-5 
-0.0014535415897312 
-2.542120892967597e-5 
1.103288507647177e-5 
0.00012822358798724587 
-0.0007673838003385222 
1.4719033445806903e-6 
-8.423646824208991e-7 
0.00013267620793720869 
-0.0002466774537202912 
0.0009465990490278614 
5.559094152855338e-6 
-3.1623274147852604e-5 
0.0009204305770085301 
-0.0001380915680613211 
-0.0006184628695456581 
0.00351237150810193 
-1.410218145704301e-5 
9.451618087611862e-6 
-3.830511864060251e-6 
4.262254364516666e-5 
-0.0017268486715434465 
-2.4565716548193945e-6 
1.0260306436187423e-5 
0.04567138933487818 
0.10561799345801808 
4.654261620565188e-6 
7.101070472936887e-5 
0.0005922084850903138 
-1.4891351004353197e-5 
-0.00018954121874948635 
0.03492215028420283 
1.6770212592462308e-5 
0.0009052391501559803 
-0.00042076593369008876 
0.12828143066716555 
9.872054217329343e-6 
-5.0551112210235343e-5 
-0.0006463257009345882 
-3.760948716400658e-6 
3.20924652428722e-6 
0.00012141700718990939 
6.16738893711006e-6 
5.316178948454323e-5 
-0.0001738391003421347 
0.002901147492250761 
-3.503918657350185e-5 
-9.865905476371094e-6 
-0.00043025435469783895 
0.0021289669646023463 
1.9740395084478736e-6 
-4.372246430827487e-5 
-0.00027983680375706074 
-0.0007683072343337705 
4.371287792623138e-6 
-9.484940885552291e-6 
0.0003869657132885278 
0.48066750110512285 
3.0670252106229273e-6 
-3.661330136057043e-5 
0.0005179211698738761 
1.6757617109386984e-5 
0.00017785242720926413 
-2.2458254609753692e-6 
1.7533592504143523e-5 
1.405443491176687e-5 
3.740858664787501e-7 
3.5665979571889726e-6 
1.8810749268600287e-5 
-0.0002999894110788856 
8.037972895834529e-5 
-6.612324082982686e-6 
-2.556153600679608e-6 
-0.0007096253334669398 
-4.540450709375944e-6 
6.150122592530687e-5 
-0.0001686252888678743 
-0.0003125442192841949 
0.00011077618027015517 
8.294005328471746e-6 
-5.1888969350099906e-5 
7.524899583958382e-5 
-5.667767915432309e-7 
1.357386528678749e-5 
5.513337034714918e-5 
1.9521976609805458e-5 
0.0002671571431893206 
3.297520874486419e-7 
-1.0270904431565722e-5 
0.000560808592330224 
0.0006267265636454598 
-1.3510547869184194e-5 
-0.0003815690408606591 
0.046752915053411344 
-1.5484517229787109e-6 
1.0707000825624287e-5 
-0.00018590905812326098 
0.014990222460703468 
7.1422152575243225e-6 
5.225286173438707e-6 
-1.5623529590063486e-5 
-4.013336033913705e-6 
4.812265408483619e-5 
-0.00035514948305547764 
-0.0003185077430491367 
-0.00010646930449609637 
1.4672742218841773e-6 
3.633875649129425e-5 
0.004920929422003386 
1.9703362033576996e-6 
4.234881522679714e-6 
-4.314354615370472e-5 
0.0016033172437402475 
0.4224437330808755 
-1.504915313442546e-6 
5.827740961444867e-5 
0.00044068332830952316 
7.59499020788536e-9 
-7.996517416142136e-6 
-0.00012041565026466968 
0.14113373560845024 
1.4630447513102305e-6 
-2.6573149720944733e-5 
0.0006834249772562527 
-8.300281686314568e-5 
-0.00014398183849690746 
-7.106319164155068e-6 
-1.540481568873898e-5 
6.929026590505182e-5 
5.894784440612048e-6 
-1.9780436137484635e-5 
-0.0003396131243130162 
0.00014160632070148407 
0.0011819658203404088 
0.6230937571684688 
-7.743745377411191e-6 
-6.745031190486593e-5 
-0.00038880376316592955 
0.0014285223322327678 
9.298145274765279e-6 
-8.435510453461047e-5 
-0.0021247956854724614 
1.1488611469555686e-6 
-9.674902478970911e-6 
-6.015859219624458e-5 
-0.002803730206488148 
0.04592427600738817 
8.375011820434236e-6 
-0.0001468803323115722 
0.0012835333191550257 
0.00011557779609142886 
-2.4284835259054392e-6 
-0.00034746531265111044 
0.01777605701290913 
3.819952512943964e-6 
-7.81996590443303e-6 
0.0007737179738257803 
0.24700572354609868 
-3.6963492059659748e-6 
2.0891105028880663e-5 
-0.0012016473414360293 
0.00016087212663700885 
9.500052517561608e-6 
-4.956257230414378e-5 
-6.322326303716215e-5 
-0.00026235539565841335 
-1.8027352654952024e-7 
-1.4030117823376623e-5 
-0.0006151846029394288 
-6.046362923352313e-6 
9.562974464749904e-6 
-0.00023555241039585866 
7.798960685441717e-6 
0.0006360323288257726 
-3.126126324307243e-6 
2.033275770599486e-5 
2.8706240856814296e-5 
1.3394281122879139e-5 
4.044151719388588e-5 
-0.0007380317076928732 
9.286796426027204e-6 
0.0001782351097618596 
-0.00042162832228702314 
-0.00018211639118159148 
8.466173891252692e-6 
7.39135360633498e-6 
9.362475353081755e-7 
-0.0011572442649376916 
0.04816527105673074 
4.352616375667535e-6 
-6.710011942484445e-5 
-0.0017310331898903997 
-3.746777975753583e-6 
7.577404350305536e-6 
1.639810151088622e-5 
-0.0005556007815720791 
0.1876057981499957 
0.23130600764937292 
5.186959490823395e-6 
-0.00012433095172174836 
-0.0005604992163002637 
0.015980843956386298 
0.00010702779020554984 
-5.7668189615282945e-5 
-3.331270430061678e-5 
5.541229695618107e-6 
-1.1886501497301102e-5 
-2.0394476379973478e-5 
-1.665933871272894e-5 
2.1657898913365604e-5 
3.8137135566431423e-5 
9.693018200422649e-5 
7.251173977444301e-6 
-1.7233143367520125e-5 
4.6547025527384094e-5 
7.5997036567677456e-6 
5.824909594494987e-6 
-0.00013491536763486249 
0.005722525934136856 
1.9051047610152154e-7 
-6.960999226138939e-6 
1.961512898101991e-5 
0.14157266726424103 
0.00034418124194728457 
-0.0026201411110810856 
0.014198176425746657 
2.533111199282127e-5 
-0.0001280533303264792 
-0.00020457173767390573 
0.002300734062246699 
0.0027453789334832565 
-1.2525092863754431e-5 
6.346683025049316e-5 
-0.00034826999941791476 
-3.6672684533573275e-6 
-1.3562188516104665e-5 
0.01858099697254549 
0.005747994535808818 
7.621498631117812e-5 
-2.1392335886787487e-6 
-6.355352876291001e-6 
-0.00022376677021355588 
-0.0006404192070194149 
-0.00013889877907771067 
9.248940598286172e-6 
8.412441915070265e-6 
-0.00036450851772180953 
3.417294035045497e-5 
0.00116829067304796 
4.058041021723604e-5 
1.59768901401745e-5 
-0.00033072516331871096 
-7.16796479338814e-7 
-5.042058213612146e-6 
-8.586668994978844e-5 
-0.0023854712874326173 
-6.943671382667883e-7 
1.100804431383016e-6 
0.0001058954668110853 
-0.00012805295571787748 
-0.003623327491065901 
3.3545424160959192e-6 
-2.045772685998263e-5 
0.00024002024321783533 
2.334079355844227e-5 
0.7649179334960726 
-3.766566150538e-6 
-0.00016025567459611212 
-3.9920581833270385e-6 
8.09356393601173e-6 
-0.00027150493579564805 
-0.0008457927746369899 
0.00011687639102622915 
6.3821475895835185e-6 
-4.5117710202363805e-5 
0.0010340353104332047 
-9.321745161628411e-7 
-1.2888432263641782e-5 
-6.813906317248022e-5 
0.00018705528052604813 
-0.0008101336415313568 
-8.819271368158647e-7 
-2.973377784964529e-6 
-1.7665025071685935e-6 
-6.324586440596986e-6 
7.05837703231473e-6 
-8.156261372829552e-5 
1.4096257053165292e-5 
-7.061162527871591e-6 
1.2935925867213115e-5 
5.1735522737358864e-5 
-7.564786952693903e-5 
-0.0018609884662647183 
0.003247909447296161 
8.756065117532183e-6 
0.00045837164252822383 
2.030870640464658e-5 
-1.700492816828915e-5 
-5.311543941256769e-6 
-3.2905890525217282e-6 
-0.0002279371612363105 
0.004336083224360909 
-2.144318218004626e-5 
-4.7134253573561545e-6 
0.0001436485883815842 
-0.0010529352636890498 
-9.805828502450852e-6 
1.8381102170419076e-5 
0.005343613239841716 
-0.0016348499739266013 
0.2399121254953774 
7.127711312793586e-6 
-7.253214107848435e-5 
1.4074531127651137e-5 
-2.482107639867766e-6 
2.9738612840164462e-5 
0.001131469486483068 
5.4576815451722125e-6 
0.0005512371387082797 
0.20021223367309204 
3.917925896077001e-6 
1.4201115391236537e-5 
-0.0007821778030349108 
3.2792675941518987e-7 
-2.4924367008020604e-5 
-2.3097912137086293e-5 
0.2895834776745339 
1.3295235023971454e-5 
-7.802414847315238e-5 
0.0004705330067414687 
-1.6570502979784594e-6 
-5.397947512286164e-5 
0.012902586622588526 
3.295431935919104e-6 
-1.0633658354667658e-5 
-7.536626112458811e-6 
-8.924283849036798e-5 
0.0007393318108888853 
0.004005763632340405 
5.2894849273269615e-6 
0.0002914161399080571 
0.0025130560584926374 
3.3215523613963923e-6 
-6.697633697533832e-6 
-0.0037149721375432584 
0.15803680530359948 
2.3174437987346646e-6 
-4.134476906829484e-5 
0.0013404387928842032 
1.37803280823912e-6 
-0.00012161770532860227 
-0.0007543441358295957 
0.00024003769090685494 
4.2858019331979236e-5 
5.269727102774058e-6 
-2.9438592589460526e-5 
0.0004616666054805874 
0.01633817620400341 
1.053102320955632e-6 
-1.0329090945231805e-5 
-0.00010305487784587735 
0.025095956223806736 
1.973928117132652e-6 
-1.7703280567540073e-5 
-4.162594039885068e-6 
1.9722705725140726e-5 
0.000307521729430814 
5.044153815688388e-6 
1.0069884471918033e-5 
-5.914323273693416e-5 
-0.0001657864815451085 
-3.90124600629357e-6 
-5.676105904085479e-6 
9.20990259112881e-6 
-9.224682037702018e-5 
0.10631637024478821 
2.0509999525149636e-6 
5.258678127228602e-6 
4.110944807810364e-5 
0.009809928689744913 
2.614712205139175e-6 
-9.17249440530398e-5 
0.003099370429745627 
-0.00010590527773510333 
-3.6702024542011986e-5 
2.518260998954338e-6 
-0.00011046387313393333 
-0.0028425147462926123 
0.00014366950946352282 
-0.00017708670444954806 
1.0402887716543638e-5 
-1.1206437056409905e-5 
0.4252986238811684 
-6.806483668382146e-6 
2.7321234830985747e-5 
6.803179668506057e-5 
0.000962767000913455 
-5.067845117099438e-7 
-4.500815380156464e-6 
-0.00020105856399810963 
-4.779078753765053e-5 
-0.0012263153921757734 
-0.0005979839468075307 
0.747286993243733 
0.5641626711110236 
0.6692849460331239 
3.826773111384685e-6 
2.787934356329995e-6 
-1.973301108717492e-6 
-2.5679879368745064e-5 
5.177436717703675e-5 
-5.830592662060905e-6 
8.037446709879134e-6 
0.002873868690507774 
-0.001842307999247078 
0.02429736129371529 
0.03879175293133245 
0.06309259023738038 
-1.785160292283639e-5 
8.891256617867074e-6 
-1.2592931307305496e-6 
0.00010499678680876768 
-0.0001582215134623262 
-2.721994648213306e-5 
0.0012877726593193929 
-0.0018272507030167957 
-5.918366171789544e-5 
7.120130416144553e-5 
0.6985453503702962 
0.5388305403023784 
1.8941665158093677e-6 
5.805525357797814e-6 
-1.6152408120757476e-5 
-6.630356518171159e-6 
0.0007083661091948941 
0.002598712450413708 
0.0818086860452718 
0.1329265920775964 
-6.600384191036493e-6 
2.57324485978716e-6 
4.862056604721807e-6 
-1.0420049235706809e-5 
-2.375046500300789e-6 
-3.103024858604452e-5 
-0.0002779609898842582 
0.00025177945917137973 
-0.0004120108690508929 
-0.0003395446767375376 
-0.000301715402669769 
-0.0004213677721278807 
0.0011233719346188066 
-9.94810976699726e-5 
-4.78874454337723e-5 
0.00010726473744078286 
9.152772849752272e-6 
-3.2326317542744463e-6 
-7.291977632775483e-6 
2.3928473089027468e-5 
2.909047973308971e-5 
-3.39192152644813e-5 
0.00013370148637392232 
-0.00012977029402334007 
2.820145635342614e-5 
3.0642400779091145e-7 
-3.138580812433701e-6 
5.112588290729168e-7 
1.7836766703179355e-5 
3.7805746015462365e-5 
-0.00017360125144207946 
2.5715859428511217e-5 
2.398319105620358e-6 
-2.0955478563923664e-7 
1.7947540610260777e-5 
-8.873038158852352e-6 
3.199123420645384e-5 
3.813498222925177e-5 
-8.995664563764066e-5 
0.00010437697967144646 
-6.726029430737053e-6 
0.0015367396939844707 
0.000862495643565526 
-0.0029537554975405575 
0.0010936474718318899 
9.95759445492828e-6 
-2.6740210387120338e-5 
-1.137449789194167e-5 
9.960756414259196e-6 
5.894265439694699e-6 
-4.320029681074625e-5 
1.0063896456822096e-5 
6.623224637097397e-6 
-8.889575266714021e-6 
1.603968306230714e-5 
-4.286544168973219e-6 
2.510819862672774e-5 
3.327918726665335e-5 
1.1491277907419371e-5 
0.00017895823099228273 
0.00026141033007710644 
-4.4784843678882294e-5 
0.00030838225715082077 
-5.081759254241952e-5 
0.0003251847768634716 
4.3394509564638624e-6 
-3.4097352499924224e-6 
5.1744709586983745e-6 
-2.3361973742680274e-5 
-6.930988477359767e-7 
-2.629141157946805e-5 
2.6327623732568413e-5 
5.616267514763628e-5 
1.13280286541919e-5 
0.00012474811399266204 
4.251399753679692e-5 
1.1802917671738576e-5 
1.9332056303502622e-5 
0.00029341959682081055 
-2.4780199650827697e-7 
-1.5447551131158028e-5 
5.966325555852353e-5 
-0.00035611489103599324 
-0.00016373614399864693 
-1.9852414237941307e-6 
1.483616400772108e-6 
8.128487328310931e-7 
3.184863906620977e-5 
7.387591055800842e-5 
-0.00013906175511858791 
0.00047256436860404537 
-0.000737742287637497 
-0.0006259620631939512 
-0.00013305005001790812 
0.0003572858120012217 
0.00013324159387638723 
2.8187694371519538e-5 
-3.7076444424368144e-6 
5.550636593519711e-6 
8.584475959262145e-6 
-2.0294932869721452e-5 
-0.00011075424588096385 
0.000266318103196495 
-7.581776106226853e-6 
3.267225262196448e-6 
-1.1230704154040194e-5 
3.04213971588051e-6 
1.2853915469522021e-5 
-3.785443559859949e-6 
-0.00017053857609965737 
0.00014818668911571707 
0.0002716585307886539 
-0.0019497032438336186 
0.0006176734140822066 
-2.843039332474072e-5 
-1.3347667282402977e-5 
2.251790533033671e-6 
-0.00034263072498597687 
-1.582597316569269e-5 
0.0005380270130438642 
-0.0009755668104692027 
7.74619749904852e-5 
0.0015885910907329345 
-1.8055750269547575e-6 
-2.697714355802762e-6 
4.550737659494455e-6 
-1.8192686412875237e-5 
-4.0676068491881554e-5 
3.464120377748872e-5 
-2.4472308366902976e-7 
-2.688876407228968e-6 
-0.0010252711361188405 
0.0005527358451870694 
-3.209607429241955e-5 
-0.00016106829320360075 
-5.7729724941423295e-6 
7.89650546941119e-6 
3.710706488566268e-5 
-1.488746016559329e-5 
0.0008111333864279519 
0.0003291030094226754 
-0.0007819617523319879 
-3.006295343882211e-6 
3.465856537253678e-6 
1.98202869681158e-6 
8.870725681114578e-6 
9.844311003827242e-7 
-1.2485222906302213e-5 
-7.763738094726202e-5 
0.00015410806635234072 
-0.0002192968032072426 
0.00024870753809361435 
7.311369259766242e-5 
0.0002612970564962908 
-3.601868668835121e-6 
2.7657723828627435e-6 
6.080477904046515e-6 
-1.22618983186599e-5 
-3.923524260900133e-6 
-2.0883955011588717e-5 
-5.034201530549935e-6 
0.00011923119319120805 
-0.00034727539757821587 
-0.00010026106910409179 
0.00020857469208058056 
-0.0002077440295426862 
0.0007205477023778775 
7.325132105469487e-7 
-7.277909199446672e-7 
1.056232111174896e-5 
8.728282954753429e-6 
-0.0011908511385709157 
-0.0013024416029029263 
0.0009560571623654764 
0.00048016922840106544 
0.0003078098698939838 
-0.0002643179561029309 
-3.2470796708605236e-6 
-3.1690045199783703e-7 
-1.9870899347222465e-5 