# vtk DataFile Version 3.0 
Unstructured Grid 
ASCII 
DATASET UNSTRUCTURED_GRID
POINTS 2173 float 
-0.5 -0.5 0  
0.5 -0.5 0  
0.5 0.5 0  
-0.5 0.5 0  
-0.475 -0.5 0  
-0.45 -0.5 0  
-0.425 -0.5 0  
-0.4 -0.5 0  
-0.375 -0.5 0  
-0.35 -0.5 0  
-0.325 -0.5 0  
-0.3 -0.5 0  
-0.275 -0.5 0  
-0.25 -0.5 0  
-0.225 -0.5 0  
-0.2 -0.5 0  
-0.175 -0.5 0  
-0.15 -0.5 0  
-0.125 -0.5 0  
-0.1 -0.5 0  
-0.075 -0.5 0  
-0.05 -0.5 0  
-0.025 -0.5 0  
-1.3761214e-12 -0.5 0  
0.025 -0.5 0  
0.05 -0.5 0  
0.075 -0.5 0  
0.1 -0.5 0  
0.125 -0.5 0  
0.15 -0.5 0  
0.175 -0.5 0  
0.2 -0.5 0  
0.225 -0.5 0  
0.25 -0.5 0  
0.275 -0.5 0  
0.3 -0.5 0  
0.325 -0.5 0  
0.35 -0.5 0  
0.375 -0.5 0  
0.4 -0.5 0  
0.425 -0.5 0  
0.45 -0.5 0  
0.475 -0.5 0  
0.5 -0.475 0  
0.5 -0.45 0  
0.5 -0.425 0  
0.5 -0.4 0  
0.5 -0.375 0  
0.5 -0.35 0  
0.5 -0.325 0  
0.5 -0.3 0  
0.5 -0.275 0  
0.5 -0.25 0  
0.5 -0.225 0  
0.5 -0.2 0  
0.5 -0.175 0  
0.5 -0.15 0  
0.5 -0.125 0  
0.5 -0.1 0  
0.5 -0.075 0  
0.5 -0.05 0  
0.5 -0.025 0  
0.5 -1.3761214e-12 0  
0.5 0.025 0  
0.5 0.05 0  
0.5 0.075 0  
0.5 0.1 0  
0.5 0.125 0  
0.5 0.15 0  
0.5 0.175 0  
0.5 0.2 0  
0.5 0.225 0  
0.5 0.25 0  
0.5 0.275 0  
0.5 0.3 0  
0.5 0.325 0  
0.5 0.35 0  
0.5 0.375 0  
0.5 0.4 0  
0.5 0.425 0  
0.5 0.45 0  
0.5 0.475 0  
0.475 0.5 0  
0.45 0.5 0  
0.425 0.5 0  
0.4 0.5 0  
0.375 0.5 0  
0.35 0.5 0  
0.325 0.5 0  
0.3 0.5 0  
0.275 0.5 0  
0.25 0.5 0  
0.225 0.5 0  
0.2 0.5 0  
0.175 0.5 0  
0.15 0.5 0  
0.125 0.5 0  
0.1 0.5 0  
0.075 0.5 0  
0.05 0.5 0  
0.025 0.5 0  
1.3761214e-12 0.5 0  
-0.025 0.5 0  
-0.05 0.5 0  
-0.075 0.5 0  
-0.1 0.5 0  
-0.125 0.5 0  
-0.15 0.5 0  
-0.175 0.5 0  
-0.2 0.5 0  
-0.225 0.5 0  
-0.25 0.5 0  
-0.275 0.5 0  
-0.3 0.5 0  
-0.325 0.5 0  
-0.35 0.5 0  
-0.375 0.5 0  
-0.4 0.5 0  
-0.425 0.5 0  
-0.45 0.5 0  
-0.475 0.5 0  
-0.5 0.475 0  
-0.5 0.45 0  
-0.5 0.425 0  
-0.5 0.4 0  
-0.5 0.375 0  
-0.5 0.35 0  
-0.5 0.325 0  
-0.5 0.3 0  
-0.5 0.275 0  
-0.5 0.25 0  
-0.5 0.225 0  
-0.5 0.2 0  
-0.5 0.175 0  
-0.5 0.15 0  
-0.5 0.125 0  
-0.5 0.1 0  
-0.5 0.075 0  
-0.5 0.05 0  
-0.5 0.025 0  
-0.5 1.3761214e-12 0  
-0.5 -0.025 0  
-0.5 -0.05 0  
-0.5 -0.075 0  
-0.5 -0.1 0  
-0.5 -0.125 0  
-0.5 -0.15 0  
-0.5 -0.175 0  
-0.5 -0.2 0  
-0.5 -0.225 0  
-0.5 -0.25 0  
-0.5 -0.275 0  
-0.5 -0.3 0  
-0.5 -0.325 0  
-0.5 -0.35 0  
-0.5 -0.375 0  
-0.5 -0.4 0  
-0.5 -0.425 0  
-0.5 -0.45 0  
-0.5 -0.475 0  
-0.002115384 -0.00023065208 0  
-0.20714286 -0.20714286 0  
0.20714286 -0.20714286 0  
0.20714286 0.20714286 0  
-0.20714286 0.20714286 0  
-0.28155318 -0.0017231192 0  
0.0017231192 -0.28155318 0  
0.28155318 0.0017231192 0  
-0.0017231192 0.28155318 0  
0.3319978 -0.33098683 0  
0.33098683 0.3319978 0  
-0.3319978 0.33098683 0  
-0.33098683 -0.3319978 0  
-0.14015679 -0.06698606 0  
0.06698606 -0.14015679 0  
0.14015679 0.06698606 0  
-0.06698606 0.14015679 0  
-0.1387125 -0.34573975 0  
0.34573975 -0.1387125 0  
0.1387125 0.34573975 0  
-0.34573975 0.1387125 0  
0.14046866 -0.34602854 0  
0.34602854 0.14046866 0  
-0.14046866 0.34602854 0  
-0.34602854 -0.14046866 0  
-0.05869875 -0.16617337 0  
0.18217777 -0.061504476 0  
0.062312964 0.18362015 0  
-0.18362015 0.062312964 0  
-0.034321424 -0.38563195 0  
0.38563195 -0.034321424 0  
0.034321424 0.38563195 0  
-0.38563195 0.034321424 0  
0.39586002 -0.2428538 0  
0.2428538 0.39586002 0  
-0.39586002 0.2428538 0  
-0.2428538 -0.39586002 0  
0.23688246 -0.38952246 0  
0.38952246 0.23688246 0  
-0.23688246 0.38952246 0  
-0.38952246 -0.23688246 0  
-0.24287231 -0.09948847 0  
0.09948847 -0.24287231 0  
0.24287231 0.09948847 0  
-0.09948847 0.24287231 0  
-0.11560815 -0.24300627 0  
0.24300627 -0.11560815 0  
0.11560815 0.24300627 0  
-0.24300627 0.11560815 0  
-0.40192315 -0.4008276 0  
0.4008276 -0.40192315 0  
0.40192315 0.4008276 0  
-0.4008276 0.40192315 0  
0.06409326 -0.40289903 0  
0.40289903 0.06409326 0  
-0.06409326 0.40289903 0  
-0.40289903 -0.06409326 0  
0.2962961 -0.23982804 0  
0.23982804 0.2962961 0  
-0.2962961 0.23982804 0  
-0.23982804 -0.2962961 0  
-0.28087237 -0.21196799 0  
0.21196799 -0.28087237 0  
0.28087237 0.21196799 0  
-0.21196799 0.28087237 0  
-0.0901279 0.007867504 0  
-0.05002927 -0.07494272 0  
0.0873353 -0.009871756 0  
0.0071518295 0.09216282 0  
-0.14120433 -0.1484696 0  
-0.14581114 0.13960092 0  
0.1458264 -0.14505939 0  
0.13960092 0.14581114 0  
0.41838804 -0.3182741 0  
0.3182741 0.41838804 0  
-0.41838804 0.3182741 0  
-0.3182741 -0.41838804 0  
0.32118136 -0.41712493 0  
0.41712493 0.32118136 0  
-0.32118136 0.41712493 0  
-0.41712493 -0.32118136 0  
-0.19707234 -0.014843048 0  
0.018050108 -0.20183705 0  
0.19707234 0.014843048 0  
-0.014843048 0.19707234 0  
-0.10938372 -0.41847488 0  
0.41847488 -0.10938372 0  
0.10938372 0.41847488 0  
-0.41847488 0.10938372 0  
0.15773043 -0.4267032 0  
0.4267032 0.15773043 0  
-0.15773043 0.4267032 0  
-0.4267032 -0.15773043 0  
-0.3204562 -0.07174808 0  
0.07174808 -0.3204562 0  
0.3204562 0.07174808 0  
-0.07174808 0.3204562 0  
0.02801032 -0.07269879 0  
-0.31817523 0.069836795 0  
-0.069836795 -0.31817523 0  
0.31817523 -0.069836795 0  
0.069836795 0.31817523 0  
0.43106207 -0.17757268 0  
0.17757268 0.43106207 0  
-0.43106207 0.17757268 0  
-0.17757268 -0.43106207 0  
0.0703783 0.071201205 0  
-0.051593844 0.064346604 0  
0.099701226 -0.08333426 0  
0.2863281 -0.17248559 0  
0.17248559 0.2863281 0  
-0.2863281 0.17248559 0  
-0.17248559 -0.2863281 0  
-0.2341888 0.04979648 0  
-0.049194112 -0.231281 0  
0.23358595 -0.04946041 0  
0.04979648 0.2341888 0  
-0.009939441 -0.13691185 0  
-0.26560438 -0.17864102 0  
0.17864102 -0.26560438 0  
0.26560438 0.17864102 0  
-0.17864102 0.26560438 0  
0.013302229 -0.43510666 0  
0.43510666 0.013302229 0  
-0.013302229 0.43510666 0  
-0.43510666 -0.013302229 0  
0.09432827 0.114700764 0  
-0.11539384 0.093188405 0  
-0.3413634 -0.005100272 0  
0.005100272 -0.3413634 0  
0.3413634 0.005100272 0  
-0.005100272 0.3413634 0  
-0.19817708 -0.3508856 0  
0.3508856 -0.19817708 0  
0.19817708 0.3508856 0  
-0.3508856 0.19817708 0  
-0.34100306 -0.27216324 0  
0.27216324 -0.34100306 0  
0.34100306 0.27216324 0  
-0.27216324 0.34100306 0  
-0.20269383 -0.14403741 0  
0.14393912 -0.2028372 0  
0.2026342 0.14393856 0  
-0.14393856 0.2026342 0  
-0.1030633 -0.10524017 0  
-0.4394695 -0.104853734 0  
0.104853734 -0.4394695 0  
0.4394695 0.104853734 0  
-0.104853734 0.4394695 0  
-0.44156647 -0.44156647 0  
0.44156647 -0.44156647 0  
0.44156647 0.44156647 0  
-0.44156647 0.44156647 0  
-0.2683254 -0.44465622 0  
0.44465622 -0.2683254 0  
0.2683254 0.44465622 0  
-0.44465622 0.2683254 0  
0.2654342 -0.4435478 0  
0.4435478 0.2654342 0  
-0.2654342 0.4435478 0  
-0.4435478 -0.2654342 0  
-0.27373606 -0.34534052 0  
0.34534052 -0.27373606 0  
0.27373606 0.34534052 0  
-0.34534052 0.27373606 0  
-0.05307205 -0.4481981 0  
0.4481981 -0.05307205 0  
0.05307205 0.4481981 0  
-0.4481981 0.05307205 0  
-0.35614902 -0.19390328 0  
0.19390328 -0.35614902 0  
0.35614902 0.19390328 0  
-0.19390328 0.35614902 0  
-0.14022674 -0.012452113 0  
0.14171903 0.011271359 0  
-0.01125192 0.14089845 0  
-0.19556868 -0.06932378 0  
0.070511825 -0.19668652 0  
0.19556868 0.06932378 0  
-0.06932378 0.19556868 0  
-0.24951252 -0.039742906 0  
0.04037078 -0.2503529 0  
0.24951252 0.039742906 0  
-0.039742906 0.24951252 0  
0.44100407 -0.36164257 0  
0.36164257 0.44100407 0  
-0.44100407 0.36164257 0  
-0.36164257 -0.44100407 0  
-0.4451273 -0.36589316 0  
0.36589316 -0.4451273 0  
0.4451273 0.36589316 0  
-0.36589316 0.4451273 0  
0.1121834 -0.30242515 0  
0.30242515 0.1121834 0  
-0.1121834 0.30242515 0  
-0.30242515 -0.1121834 0  
-0.115146436 -0.19087775 0  
0.19190264 -0.11309679 0  
0.11520548 0.19263776 0  
-0.19263776 0.11520548 0  
-0.08287991 -0.37025127 0  
0.37025127 -0.08287991 0  
0.08287991 0.37025127 0  
-0.37025127 0.08287991 0  
0.23791528 -0.24381089 0  
0.24381089 0.23791528 0  
-0.23791528 0.24381089 0  
-0.24381089 -0.23791528 0  
-0.44626984 -0.21174923 0  
0.21174923 -0.44626984 0  
0.44626984 0.21174923 0  
-0.21174923 0.44626984 0  
0.35174853 -0.37705234 0  
0.37705234 0.35174853 0  
-0.35174853 0.37705234 0  
-0.37705234 -0.35174853 0  
-0.048605647 -0.023262763 0  
-0.1551113 -0.21381997 0  
0.21381997 -0.1551113 0  
0.1551113 0.21381997 0  
-0.21381997 0.1551113 0  
-0.29403278 -0.30027482 0  
0.30027482 -0.29403278 0  
0.29403278 0.30027482 0  
-0.30027482 0.29403278 0  
0.12173745 -0.390654 0  
0.390654 0.12173745 0  
-0.12173745 0.390654 0  
-0.390654 -0.12173745 0  
-0.12236246 -0.2979882 0  
0.2979882 -0.12236246 0  
0.12236246 0.2979882 0  
-0.2979882 0.12236246 0  
-0.0945969 -0.046371013 0  
0.035276897 -0.027358124 0  
-0.0076714605 0.051946 0  
-0.30809116 -0.17165439 0  
0.17165439 -0.30809116 0  
0.30809116 0.17165439 0  
-0.17165439 0.30809116 0  
-0.16592422 -0.10879113 0  
0.10700909 -0.1687818 0  
0.16864619 0.10664837 0  
-0.10664837 0.16864619 0  
-0.16784625 -0.38069874 0  
0.38069874 -0.16784625 0  
0.16784625 0.38069874 0  
-0.38069874 0.16784625 0  
-0.4563872 -0.05993889 0  
0.05993889 -0.4563872 0  
0.4563872 0.05993889 0  
-0.05993889 0.4563872 0  
0.31103167 -0.37412483 0  
0.37412483 0.31103167 0  
-0.31103167 0.37412483 0  
-0.37412483 -0.31103167 0  
-0.3909646 -0.012754724 0  
0.012754724 -0.3909646 0  
0.3909646 0.012754724 0  
-0.012754724 0.3909646 0  
0.44915667 -0.21679194 0  
0.21679194 0.44915667 0  
-0.44915667 0.21679194 0  
-0.21679194 -0.44915667 0  
0.045831423 0.12033131 0  
-0.12662303 0.045442794 0  
-0.3107799 -0.37355793 0  
0.37355793 -0.3107799 0  
0.3107799 0.37355793 0  
-0.37355793 0.3107799 0  
0.04152367 0.021693805 0  
-0.08040017 -0.2675595 0  
0.26794365 -0.08044455 0  
0.080500565 0.2680441 0  
-0.2680441 0.080500565 0  
-0.13753757 -0.45578164 0  
0.45578164 -0.13753757 0  
0.13753757 0.45578164 0  
-0.45578164 0.13753757 0  
-0.05507968 -0.12135967 0  
0.14172421 -0.09428923 0  
0.2571752 -0.19664502 0  
[...]
POINT_DATA 2173 
SCALARS T float 
LOOKUP_TABLE default 
-5.847063937076464e-20 
9.888902548586658e-20 
-8.404408316487722e-19 
-5.525837775664083e-18 
-1.3157344094255392e-18 
1.7566698544767893e-18 
5.583481901075309e-19 
3.4406218687927562e-18 
7.202492540523482e-19 
-2.0432692714236974e-18 
-4.889908294335927e-19 
1.0381086569724641e-17 
1.864750070851865e-18 
1.5740456298136656e-18 
-1.5100688245178e-18 
1.842040929923776e-18 
-4.16709762187886e-20 
1.0688149166785788e-18 
5.7615508911867865e-18 
-3.0235859926142537e-18 
5.563564204866252e-18 
-3.149956854757044e-18 
5.888265606332688e-18 
-9.268950793754368e-18 
1.2880967393554851e-17 
-1.753314853339609e-17 
1.176205522009753e-17 
-6.523772392588086e-18 
5.0513042001856564e-18 
-3.832473673925224e-18 
6.1813750504692584e-18 
-4.2849627268562016e-18 
2.9100292810886068e-18 
1.3072516215768608e-17 
-2.0892755020751858e-18 
-5.760796809770947e-18 
-7.491029490904278e-18 
-5.27967960468566e-18 
-8.304185614870576e-18 
-7.97330520580596e-18 
-1.013542491618699e-17 
-5.028223548249622e-18 
-1.992109677824539e-18 
2.7487850849919575e-18 
5.3282070683695e-18 
1.2605473736665452e-17 
1.1313383577221467e-17 
2.0282576138496873e-17 
2.1916577018274807e-17 
8.464678456429523e-18 
1.283189402224881e-17 
1.09018333561845e-17 
2.1608551648495866e-17 
1.7923501255138324e-17 
-1.608034086742592e-19 
4.504145720980512e-17 
-2.8537466294424804e-17 
6.34250852774611e-17 
-7.008085281493615e-17 
7.060173531843136e-17 
-3.884844253963394e-19 
-6.005549841845152e-17 
8.172104615922695e-19 
3.99461284196493e-17 
-7.456177250216405e-17 
1.016176211308372e-16 
-8.317065076586678e-17 
-1.0388637809017525e-16 
8.782620595154413e-17 
-1.2393430026078232e-16 
5.295925591739688e-17 
-3.467141926589905e-17 
-8.681104387573387e-17 
-4.810785115145013e-17 
-1.5237575624903552e-16 
-3.583904601802695e-17 
-1.75132482835822e-16 
-6.3257684104702e-17 
1.7730181579519038e-17 
-7.022822263464725e-17 
6.633944880460119e-18 
4.6685644458321346e-17 
-4.639076257015422e-17 
1.3179330071247869e-17 
1.0918986344841551e-16 
-3.354043375114709e-17 
-3.119957876879022e-17 
3.843245440458601e-17 
-8.382198539199512e-17 
3.6178949162385494e-16 
-3.185508880047355e-16 
3.607585865710738e-16 
-1.6962474856339788e-16 
8.888304524396804e-17 
-2.2867209698366445e-16 
4.2787356490921334e-17 
1.5367869724957616e-16 
-5.471693088936583e-16 
5.947116214272387e-16 
-1.4616452430831092e-16 
-7.406416756937041e-16 
5.512124766557318e-16 
-3.5496582988803474e-16 
2.0157533539473428e-16 
3.677048033137333e-16 
-9.15271344324359e-16 
-5.048821987739122e-16 
2.3411439061003744e-17 
-5.521952951052819e-16 
1.270840375805999e-16 
-6.716610530877953e-16 
2.493721861504159e-16 
5.500528909081038e-16 
2.495739598046097e-16 
6.136570666732125e-18 
4.573357258217418e-16 
1.352511465264601e-16 
-5.5206963996030555e-17 
3.307525833627253e-16 
-1.4897376118823953e-17 
-1.7911832444112397e-16 
1.5218638497790992e-16 
8.198286937059345e-17 
-5.276867481879446e-16 
2.5024342895811193e-16 
8.327220530495068e-17 
2.0166748090513313e-16 
2.1873209257359079e-16 
6.675036508151763e-16 
2.051202111795996e-16 
-1.5361857206541367e-16 
3.339298922537905e-16 
8.475311555727346e-17 
6.744164389444286e-17 
2.505957076003891e-16 
-2.2179801387317902e-16 
3.337229904663727e-16 
-1.8630773917308962e-16 
1.0534208485606087e-16 
6.79308677909688e-17 
-1.341740882114334e-16 
1.1411345389342163e-16 
-8.200632351196405e-17 
3.866003153162305e-18 
3.1505166717500128e-18 
-4.666227473601305e-18 
-2.0702012293012117e-18 
-1.5918461778286714e-18 
-1.7318734360618896e-18 
3.287682172048775e-18 
-1.6221601638031037e-18 
3.071420368058712e-18 
2.363111877398757e-18 
-2.680107401632861e-18 
-1.5821038020375867e-18 
-1.1110334859814392e-18 
-5.553550113786474e-19 
3.848087247465035e-19 
-6.554166869133634e-19 
1.2593643923043204e-18 
1.9302791635334477e-5 
-1.2570866974574095e-5 
-2.34552927603119e-5 
0.0007181155132632997 
0.03322644773975555 
0.22006442580923558 
-6.163234927687328e-6 
-4.804169862696279e-6 
6.450952119517556e-6 
-7.546970941904746e-6 
6.8697807609121295e-6 
0.0002614719588985795 
-1.1262542800539012e-6 
0.007967313595419008 
-2.8934819774961284e-6 
-6.228273403018598e-5 
0.002131180141136209 
-9.808361112731674e-8 
3.161064086893137e-6 
0.0004011153579868512 
0.04927896842427381 
4.76426526510134e-6 
3.7977898102550844e-5 
0.000509637043830908 
7.106883754214012e-6 
4.5128484436252057e-7 
-4.432427527809343e-5 
0.00017705638017123467 
0.3601213468313598 
8.087625475597877e-6 
-2.6419829339016396e-5 
-0.0003174361358748042 
0.018237384481479404 
-2.2341166844810024e-5 
0.00011090586468946308 
-0.00043058820173711885 
4.4025817167419056e-7 
-4.658155992829871e-6 
-7.896331377000492e-5 
0.0001524303508721418 
-7.128051867264719e-7 
0.011403122496228222 
3.025489869812042e-6 
-6.89957060005427e-5 
0.0013123066476880651 
-9.709749953327638e-7 
-2.9802868655840993e-6 
-0.0007631429012566434 
0.4483748472367549 
-1.0753528694426687e-6 
-8.899121926605679e-6 
3.9891754858076025e-5 
0.0007619699944832138 
-1.132967504596807e-5 
9.471471968822846e-6 
0.0003665532256448963 
0.00028702622861586545 
-2.502129294260955e-5 
0.00029679709485125593 
0.0063730454108153626 
-3.481185853841383e-7 
-1.6057770230070867e-5 
-1.694804561728618e-5 
0.00026746363716815207 
0.001989299847524847 
0.0095757586117828 
7.609985701902849e-6 
4.509663896975641e-5 
-0.0009074563617272833 
-7.971311585413008e-6 
0.08581384296522411 
2.4874666055582872e-5 
-0.0002289192702778354 
-6.893079500304046e-6 
-3.332669831694543e-5 
0.0004689356587251569 
-2.169612478285648e-6 
-2.1633777662749552e-5 
7.11091012390671e-5 
0.0003955189819097218 
-2.3571424039735333e-7 
0.16234145553558166 
-3.772699215077402e-6 
-5.938755341198874e-5 
0.00035853707471760556 
4.74075789546619e-7 
-3.7145134884425546e-5 
-0.0003269274480680199 
0.0026091029666144403 
5.7534074006191205e-6 
-8.03566933443213e-5 
0.00024896438117655496 
-1.196569322068567e-5 
0.014790793169683453 
9.550404720660196e-6 
8.24812112392604e-5 
-0.001305108576553649 
-1.3478387354923545e-5 
0.22624401226925034 
1.1350553481052927e-6 
2.7434452070452516e-5 
-0.0008730495120608825 
-2.499950443513911e-5 
0.00015688928847357918 
-7.094585183888912e-5 
2.5264347104610764e-6 
4.728011323288557e-5 
0.0026012689357990705 
-3.3016618212020235e-5 
1.4463043674551758e-5 
-0.0005041489746541529 
0.0866127852929972 
2.548253212266737e-7 
0.540320166066918 
-6.255726326456091e-6 
-3.188780816637513e-5 
-0.0004491804872528507 
8.873122996132454e-7 
-1.5327704936511465e-5 
-7.371024163634026e-6 
0.0002203340180041116 
0.0017714511967761829 
8.279702758311593e-6 
-2.9822899414141482e-5 
-6.646005569045508e-5 
7.15866339552326e-5 
-0.00021267892106504755 
0.049360387220040235 
0.06035993299124252 
-1.9847032795414895e-6 
2.2152419729311983e-5 
-0.001353076654472032 
5.996546253440987e-7 
-1.8408216160795424e-5 
0.0003386332325605795 
0.006857010999805933 
-7.558294083143532e-7 
-6.126624738798582e-6 
-4.681740431657549e-5 
0.0010017340426589768 
0.0005294299859993296 
-8.363798726335684e-6 
1.3135746874341286e-5 
0.01029732568327808 
0.00013121408821549886 
-3.1286685165268067e-5 
-2.7277780310043584e-6 
-6.527043615092193e-5 
-0.00017844627980500693 
-1.033012291876059e-6 
-9.313597870355398e-7 
2.354344031133967e-5 
0.0003324186264810796 
-9.990584922761229e-7 
7.59748623204477e-7 
-1.2287613526937526e-6 
-6.449404581701793e-5 
1.2298985769771177e-6 
-2.495813371030016e-5 
0.0007492357574164282 
-3.849007415253492e-7 
-1.2203980158393644e-6 
4.98203019690494e-6 
0.00015347816506169808 
0.0013675117748751253 
-1.8054785932266966e-6 
-3.92746881307912e-5 
-0.00031507465982421093 
0.00044033940074096107 
-1.1249262484157064e-5 
-1.3755989830759073e-5 
0.00010422533371289991 
0.00029854637107368855 
0.0465707495886008 
-4.161527248368902e-6 
-0.0002631211318687443 
0.02863959070796606 
1.0269124175375783e-6 
6.125374172919853e-5 
0.0011397711274018227 
0.11408855081274158 
4.541354550775908e-6 
5.2792194646024395e-5 
0.0008994089670747459 
-6.18154573540932e-6 
-3.157917465954121e-5 
0.0006024861059047623 
2.8742869433835096e-7 
-9.624777369265143e-7 
-8.063581392561626e-6 
9.126654197276277e-5 
0.00041556985238187295 
1.0610504039953288e-6 
3.9490693125204824e-5 
-7.2180433024122e-5 
0.002969829140850832 
-3.989322192346281e-6 
-3.437035496118979e-5 
-0.00043608661612745263 
0.326227259597889 
1.7318646745055252e-6 
4.5919999125194e-5 
-0.0003674235151777901 
0.039648107465720096 
2.1390169872069035e-5 
-0.00038383059842472247 
0.0041819331792316995 
-2.4118430068029757e-6 
3.066593329110746e-6 
1.0261411204473982e-5 
2.5636231154551554e-5 
0.0003755825497531761 
6.732616160941571e-7 
-5.1636836619098324e-5 
-0.0002547968678096289 
-1.4949050131897457e-6 
0.0003800460986091952 
-4.16499142721834e-6 
1.206222665205008e-5 
-5.173786225833585e-5 
0.20150759327522763 
-2.0809150004986386e-6 
8.60930867916788e-6 
0.00022664784995972504 
-0.00024044786012248314 
-4.088332734912609e-6 
-4.834655852450117e-5 
0.0006568193115861327 
-0.00010170637627772993 
-3.478795291461739e-7 
-2.6536353874442715e-7 
0.0007051269826718716 
0.22703970453116726 
0.0026285460065115828 
-4.943772956608235e-6 
0.00021456839602220046 
-4.54758801202597e-5 
-1.6749643942265984e-5 
0.0001490513573549012 
0.0011331032133443514 
0.0020769645005904495 
-1.2606010437017012e-5 
-3.722746757570818e-5 
0.010530252854665407 
-2.158309620550266e-6 
-2.206168798769851e-5 
0.00022176482248991445 
0.005820562853628933 
-9.221020213101056e-5 
-1.1025011124372831e-5 
-9.360707839985236e-6 
0.00025089538169023004 
1.735983277867213e-6 
-0.00011275274196171988 
0.00022588609245482262 
-3.948880809140532e-7 
0.006406966784188279 
-4.795573423351579e-6 
-6.092512000409487e-6 
-0.0005986665700769768 
-5.007597327043481e-6 
-0.00012937071490003385 
-0.00022279874426758814 
9.282850787471666e-7 
8.173160750247604e-5 
0.07386364033746709 
-2.0968473380394632e-6 
-9.621129273486894e-6 
0.00015726902269997967 
1.4964612427682324e-5 
5.377097163432963e-5 
3.252675953394661e-6 
2.3170963929731333e-5 
0.0004764687657102517 
0.503552604714134 
4.810162482093229e-7 
-8.30601033183892e-6 
0.0002863139149261974 
0.0002329029669072276 
-1.0030392977626166e-5 
-1.6578519743677983e-6 
-2.5351914154318624e-5 
0.00014287704427917434 
0.05366231352474398 
-1.589316009245586e-7 
-4.9099679216081164e-5 
2.075430687906854e-6 
-8.18016861001075e-7 
9.211791678269904e-6 
-0.00020877018742525147 
-0.00011935524040817575 
-3.8509982231360285e-6 
-5.359104766584843e-5 
7.899176589943285e-5 
2.2842844999538485e-6 
-2.772268825860883e-6 
5.630757606462756e-5 
-3.9901297209698675e-5 
-3.3540993093342618e-6 
0.00011725782992604714 
0.00020281095580019286 
0.028624251247166815 
5.296888444748427e-6 
6.65831444881393e-5 
-0.0008265754666657384 
0.0008743950401643685 
-3.101420315137329e-5 
-1.3170580854929655e-6 
-5.985027322208529e-6 
2.43253906366244e-6 
0.0007641464526409455 
0.34864812620410157 
0.330880636674282 
3.786314025269321e-6 
0.00011914439869149228 
-8.718341068095206e-7 
1.979384571481799e-6 
6.430292760198351e-6 
2.072708051743043e-5 
0.0005735748888281768 
2.579609633128422e-5 
-4.411611959125042e-6 
4.8368903124762533e-8 
6.846849788853468e-5 
0.0005072391670209259 
-5.369353406720111e-5 
-9.853155746993563e-6 
-2.4793805376025487e-6 
-7.399357180286114e-5 
0.0009111886028354624 
-1.5863855804139911e-6 
0.1020393201854037 
-1.1306916853540996e-6 
-6.372547188840556e-6 
0.0009482588813395123 
-5.1503803262855685e-6 
-3.507005061036487e-6 
6.194932247403043e-5 
0.00043741927979373986 
-4.3793378054571416e-7 
-8.732427462285232e-5 
0.0004688087511541794 
0.013670482208204967 
0.0016768568750592302 
-4.0183562423055254e-6 
9.200835324465445e-5 
0.00091226333847142 
-2.1128654000649367e-5 
0.07364993495016958 
-4.190563868458428e-6 
3.882444709030807e-6 
7.938849150420895e-6 
-2.6303635557852422e-5 
0.0005494014201030365 
-3.753970499595836e-7 
-1.9151879554556655e-6 
-2.062041207694712e-6 
0.0002687570644527672 
0.017465479849509895 
2.812123266346785e-6 
4.106615257873412e-5 
-0.00010398253892975989 
8.147345234331642e-5 
1.5821157312702917e-6 
-9.675980403513875e-7 
0.00010033777496038033 
0.00035435137880213694 
-2.6172524991726237e-6 
-3.193359929321467e-5 
0.0002616773767004833 
-5.523351239170073e-7 
-4.721955478748371e-6 
1.6411167491595276e-5 
9.542608185129956e-5 
5.919630733858149e-8 
0.34992196029721356 
2.797797176805195e-6 
4.609174266185151e-5 
0.0012639457534087655 
0.045886892075077686 
-6.170376374846177e-5 
0.0008247715291926488 
0.00019260891017869626 
0.18173871126930166 
0.06195628235854833 
5.247750968424331e-6 
4.7992822353999943e-5 
0.00021870361418894658 
0.005749028471951734 
-4.221853494228123e-6 
-8.88568349172239e-5 
-0.0001846018921720282 
4.691719112511141e-5 
-1.903600277164987e-5 
-2.201621824260686e-5 
0.00040228644723885084 
0.008084203577690173 
-7.469874114535404e-6 
0.00011709070425370904 
-0.00011707753498673681 
3.2616045579071123e-6 
-0.00044769699811109603 
0.005655372120968259 
2.4932683045020973e-5 
-0.00012394446119883904 
0.0004144067093405615 
6.790285114534498e-6 
6.0615572200949174e-5 
0.00016517760312688816 
-0.00013156951778618112 
1.8676750394087537e-5 
0.00021859508872946134 
0.21401402502367256 
-6.799122230307304e-7 
2.673092553249975e-5 
0.007614094826517965 
1.527104192348829e-6 
-0.00019537035690759934 
0.0007466587704055001 
-1.9109207628007596e-7 
0.11001234695116091 
-4.395065387295941e-6 
1.6530670725766027e-5 
0.00011705133100675678 
-2.3794892030672503e-6 
1.049978602751806e-5 
8.90889488618798e-5 
-0.0004034216246596828 
-1.802387509671681e-6 
-5.234995526536114e-5 
0.00146531013078793 
0.548978380761815 
9.87320273832656e-6 
0.0002529025592764445 
0.00016677424566758506 
-1.612052072783307e-6 
-4.352204641633994e-7 
1.959387862025165e-5 
-2.5701539997432132e-5 
0.00033214708337337963 
-2.8276227676234063e-7 
-1.602698101222477e-5 
0.0003202982241161035 
0.04457302726204691 
-3.1734916808437895e-7 
9.245509268423317e-7 
-0.00017477128361974092 
0.01795887057615249 
0.00010487366937792959 
0.024763717611669577 
6.287127691728542e-6 
-5.331832642993217e-5 
-0.00016934636411422232 
-3.5257118955561e-8 
6.625690451768125e-7 
-2.0737746506236603e-6 
5.3268669036366805e-6 
0.00020327443200895701 
0.0007108002014442827 
8.065481185825546e-6 
-0.00018767002568684246 
0.0028092846685587826 
0.18383521764247593 
-2.5836137020632316e-5 
-0.00018845475528906676 
0.012450446313116906 
-1.0149331580662174e-5 
-3.4385955249646776e-6 
5.434215464925383e-5 
0.000145126093179697 
0.0009247170824995544 
-1.708972271323905e-7 
-9.258823739151923e-7 
-1.5261995657826738e-6 
2.408990779050767e-7 
5.391751831962601e-5 
1.80360663121756e-5 
-4.838975865661681e-5 
0.007868132178883666 
-1.7224281873095299e-6 
-1.2161075898385486e-6 
4.268932422946347e-5 
-0.000380791086817869 
0.0022644694240501672 
-1.3099056530567775e-5 
-3.3170402086474164e-6 
-1.411671146886452e-5 
-1.9971842867754445e-5 
1.0517547660755117e-5 
3.0225320258665117e-5 
6.834732491204554e-5 
-8.52738567195748e-5 
-9.710339219577695e-5 
0.1212041342976856 
0.28228292433573604 
0.17979670071653647 
4.5318975468250575e-6 
3.189095262770304e-6 
-1.0856218572074837e-6 
6.660714748027351e-5 
-4.132106966841875e-6 
2.7425829206074646e-6 
0.00010861647163365932 
-0.0010729965697707984 
0.0005110745584575915 
0.4580948045699709 
0.3742438387263149 
0.4821646974542714 
-1.6869807702923415e-5 
-1.8222150725147643e-5 
0.081852451358324 
0.17949485518310845 
-1.3598582378541478e-5 
-7.001983462633312e-6 
-0.0004874224837867282 
0.0006769524512119757 
0.5588359027131178 
0.48124900134229837 
4.285870538070832e-6 
-1.193962738765339e-6 
2.477944187572665e-5 
3.935129502833204e-5 
-9.329915499326157e-5 
-0.0009153595878105794 
-6.324363046414024e-5 
4.626179618772755e-5 
-0.00013773928674207022 
0.0044399155304738055 
0.0007315448901699824 
0.0014830769662142586 
6.939214727645765e-5 
0.0003016214115190494 
-3.4692970439072654e-7 
-1.1817770559105245e-7 
-2.51913926967236e-7 
1.0534396311616729e-5 
-9.32643038022229e-6 
8.679985041596479e-6 
-0.0001641460566934199 
-0.00026226095674212574 
0.00015596028298127816 
0.00011450068542337992 
0.00017740084325346952 
-9.091930485557405e-5 
1.1997371866310075e-6 
2.1512320614730098e-7 
6.873782334583966e-7 
5.186109332840895e-6 
0.00010625557896311883 
-8.103344230302764e-6 
-0.00021666735981082605 
3.102346317953471e-5 
-2.56009012282975e-6 
1.9885786283939854e-6 
1.0787741000962804e-5 
6.4318116432393105e-6 
-1.2420754073873757e-5 
-1.267017993135456e-5 
-0.00015090225319317214 
0.0001458545667155605 
0.2919625323974639 
0.16486822666024925 
0.13336766891941332 
-2.4604710220464624e-6 
-2.25850479354013e-6 
5.467168267069192e-6 
-7.135573905925314e-5 
-1.1046563568273031e-5 
2.977494696712384e-5 
-0.00025574517201963366 
0.0007779673061894792 
0.0006138976098859216 
3.386648643992635e-6 
-5.093650199678652e-6 
2.852009053881021e-6 
-0.00011840778502228477 
2.632375168615805e-5 
0.0001760735622650807 
0.00011206579672679496 
-0.0001554523812190125 
0.0003341317099506608 
1.2169968199368379e-6 
-3.146717092361993e-6 
4.551848658677726e-6 
2.649729779445637e-6 
-8.969661480007201e-6 
-2.1670606885702284e-7 
7.385392390028527e-5 
-2.4157960030731296e-5 
3.248032273992559e-5 
-5.041350466743551e-5 
4.118008881070562e-5 
-0.000262011831847908 
-1.2319924131446551e-6 
9.591297682031005e-7 
-1.4546917058485662e-6 
8.028905330910659e-7 
1.0870913987604413e-5 
0.00015863039872044703 
-6.580301565428668e-5 
-7.448355825485065e-6 
5.768726338601824e-5 
-5.8866288146099526e-5 
2.7147174843598175e-7 
1.3097477103783086e-5 
-9.480920067920983e-7 
-4.399413346593952e-5 
1.5670302294162474e-5 
0.0001732178711656764 
0.0003901787070890714 
1.1658643745332274e-6 
-1.6125264578932909e-6 
0.0247634632935692 
0.013238754576468772 
0.0059328718737727895 
3.5272580401273883e-7 
1.3644041916347545e-6 
4.468992256020274e-6 
8.857314888073278e-6 
1.4435041278016254e-5 
-2.2143772365243144e-5 
-1.627666759612143e-5 
8.065314256791195e-5 
1.8949644955273016e-6 
1.259030627487086e-6 
1.9011538329032013e-6 
1.8863489645293897e-7 
3.986945565872335e-5 
5.459513235839045e-5 
0.0004206319502658155 
-0.0001898412439691223 
0.21199656051093516 
0.0869572995588704 
-6.221409664629874e-7 
2.7586358009170474e-6 
8.794219930409836e-6 
-4.50891228547539e-5 
-0.0016767732625676088 
0.00045264398895523126 
2.0138877885973146e-6 
6.699735059537725e-7 
-3.0533987831548577e-7 
6.247593311698127e-6 
-2.324312407373551e-8 
-3.8123357342036468e-6 
-1.0610317058606713e-7 
-5.276599335148758e-5 
4.733556568530457e-5 
0.0007391917487306227 
-0.0006883158037707392 
-0.0002707819799203802 
0.0003048678541143493 
-6.639842563229411e-5 
6.536618845444464e-7 
-3.140935636664142e-6 
-6.5955003996234705e-6 
-5.965530717497737e-6 
-1.5868542500190452e-5 
-0.0002766827114986807 
9.322624226259103e-5 
0.0012242514204701851 
-6.660720655080842e-6 
4.6174179958701605e-6 
1.1627190140904644e-6 
3.3507454226029005e-5 
-1.8719114593678386e-5 
6.56562281779006e-5 
-0.00028500191853175506 
-0.00025243905971594375 
0.0005997470702102269 
-6.738260969194777e-6 
-7.528787738108644e-6 
-1.4386978118480078e-5 
1.4017454970854987e-5 
-5.649462705873319e-6 
3.6384272864073566e-6 
-0.0001935750482662499 
2.5243649116493594e-5 
0.00010887752562707093 
-8.979343153620546e-5 
0.00025153462847204105 
-0.0002472360556916738 
-4.880247389432085e-7 
-9.720737524701607e-7 
-9.332773947778945e-7 
6.781771478707026e-7 
5.453319836100443e-7 
8.036642982340051e-7 
7.4528212803750435e-6 
0.00013699516648391346 
-3.459854969553033e-5 
0.0003919168771223345 
6.274357960513838e-6 
0.0003494557585335169 
0.0008673718567320549 
5.737272634424119e-5 
0.0052415735069377715 
2.186426659035724e-7 
5.564227206565653e-6 
-3.146237177507115e-5 
-0.00011779764397375511 
-0.00025529452088101826 
0.000640895952111544 
-2.371699819612824e-6 
9.729978627641704e-7 