# vtk DataFile Version 3.0 
Unstructured Grid 
ASCII 
DATASET UNSTRUCTURED_GRID
POINTS 2173 float 
-0.5 -0.5 0  
0.5 -0.5 0  
0.5 0.5 0  
-0.5 0.5 0  
-0.475 -0.5 0  
-0.45 -0.5 0  
-0.425 -0.5 0  
-0.4 -0.5 0  
-0.375 -0.5 0  
-0.35 -0.5 0  
-0.325 -0.5 0  
-0.3 -0.5 0  
-0.275 -0.5 0  
-0.25 -0.5 0  
-0.225 -0.5 0  
-0.2 -0.5 0  
-0.175 -0.5 0  
-0.15 -0.5 0  
-0.125 -0.5 0  
-0.1 -0.5 0  
-0.075 -0.5 0  
-0.05 -0.5 0  
-0.025 -0.5 0  
-1.3761214e-12 -0.5 0  
0.025 -0.5 0  
0.05 -0.5 0  
0.075 -0.5 0  
0.1 -0.5 0  
0.125 -0.5 0  
0.15 -0.5 0  
0.175 -0.5 0  
0.2 -0.5 0  
0.225 -0.5 0  
0.25 -0.5 0  
0.275 -0.5 0  
0.3 -0.5 0  
0.325 -0.5 0  
0.35 -0.5 0  
0.375 -0.5 0  
0.4 -0.5 0  
0.425 -0.5 0  
0.45 -0.5 0  
0.475 -0.5 0  
0.5 -0.475 0  
0.5 -0.45 0  
0.5 -0.425 0  
0.5 -0.4 0  
0.5 -0.375 0  
0.5 -0.35 0  
0.5 -0.325 0  
0.5 -0.3 0  
0.5 -0.275 0  
0.5 -0.25 0  
0.5 -0.225 0  
0.5 -0.2 0  
0.5 -0.175 0  
0.5 -0.15 0  
0.5 -0.125 0  
0.5 -0.1 0  
0.5 -0.075 0  
0.5 -0.05 0  
0.5 -0.025 0  
0.5 -1.3761214e-12 0  
0.5 0.025 0  
0.5 0.05 0  
0.5 0.075 0  
0.5 0.1 0  
0.5 0.125 0  
0.5 0.15 0  
0.5 0.175 0  
0.5 0.2 0  
0.5 0.225 0  
0.5 0.25 0  
0.5 0.275 0  
0.5 0.3 0  
0.5 0.325 0  
0.5 0.35 0  
0.5 0.375 0  
0.5 0.4 0  
0.5 0.425 0  
0.5 0.45 0  
0.5 0.475 0  
0.475 0.5 0  
0.45 0.5 0  
0.425 0.5 0  
0.4 0.5 0  
0.375 0.5 0  
0.35 0.5 0  
0.325 0.5 0  
0.3 0.5 0  
0.275 0.5 0  
0.25 0.5 0  
0.225 0.5 0  
0.2 0.5 0  
0.175 0.5 0  
0.15 0.5 0  
0.125 0.5 0  
0.1 0.5 0  
0.075 0.5 0  
0.05 0.5 0  
0.025 0.5 0  
1.3761214e-12 0.5 0  
-0.025 0.5 0  
-0.05 0.5 0  
-0.075 0.5 0  
-0.1 0.5 0  
-0.125 0.5 0  
-0.15 0.5 0  
-0.175 0.5 0  
-0.2 0.5 0  
-0.225 0.5 0  
-0.25 0.5 0  
-0.275 0.5 0  
-0.3 0.5 0  
-0.325 0.5 0  
-0.35 0.5 0  
-0.375 0.5 0  
-0.4 0.5 0  
-0.425 0.5 0  
-0.45 0.5 0  
-0.475 0.5 0  
-0.5 0.475 0  
-0.5 0.45 0  
-0.5 0.425 0  
-0.5 0.4 0  
-0.5 0.375 0  
-0.5 0.35 0  
-0.5 0.325 0  
-0.5 0.3 0  
-0.5 0.275 0  
-0.5 0.25 0  
-0.5 0.225 0  
-0.5 0.2 0  
-0.5 0.175 0  
-0.5 0.15 0  
-0.5 0.125 0  
-0.5 0.1 0  
-0.5 0.075 0  
-0.5 0.05 0  
-0.5 0.025 0  
-0.5 1.3761214e-12 0  
-0.5 -0.025 0  
-0.5 -0.05 0  
-0.5 -0.075 0  
-0.5 -0.1 0  
-0.5 -0.125 0  
-0.5 -0.15 0  
-0.5 -0.175 0  
-0.5 -0.2 0  
-0.5 -0.225 0  
-0.5 -0.25 0  
-0.5 -0.275 0  
-0.5 -0.3 0  
-0.5 -0.325 0  
-0.5 -0.35 0  
-0.5 -0.375 0  
-0.5 -0.4 0  
-0.5 -0.425 0  
-0.5 -0.45 0  
-0.5 -0.475 0  
-0.002115384 -0.00023065208 0  
-0.20714286 -0.20714286 0  
0.20714286 -0.20714286 0  
0.20714286 0.20714286 0  
-0.20714286 0.20714286 0  
-0.28155318 -0.0017231192 0  
0.0017231192 -0.28155318 0  
0.28155318 0.0017231192 0  
-0.0017231192 0.28155318 0  
0.3319978 -0.33098683 0  
0.33098683 0.3319978 0  
-0.3319978 0.33098683 0  
-0.33098683 -0.3319978 0  
-0.14015679 -0.06698606 0  
0.06698606 -0.14015679 0  
0.14015679 0.06698606 0  
-0.06698606 0.14015679 0  
-0.1387125 -0.34573975 0  
0.34573975 -0.1387125 0  
0.1387125 0.34573975 0  
-0.34573975 0.1387125 0  
0.14046866 -0.34602854 0  
0.34602854 0.14046866 0  
-0.14046866 0.34602854 0  
-0.34602854 -0.14046866 0  
-0.05869875 -0.16617337 0  
0.18217777 -0.061504476 0  
0.062312964 0.18362015 0  
-0.18362015 0.062312964 0  
-0.034321424 -0.38563195 0  
0.38563195 -0.034321424 0  
0.034321424 0.38563195 0  
-0.38563195 0.034321424 0  
0.39586002 -0.2428538 0  
0.2428538 0.39586002 0  
-0.39586002 0.2428538 0  
-0.2428538 -0.39586002 0  
0.23688246 -0.38952246 0  
0.38952246 0.23688246 0  
-0.23688246 0.38952246 0  
-0.38952246 -0.23688246 0  
-0.24287231 -0.09948847 0  
0.09948847 -0.24287231 0  
0.24287231 0.09948847 0  
-0.09948847 0.24287231 0  
-0.11560815 -0.24300627 0  
0.24300627 -0.11560815 0  
0.11560815 0.24300627 0  
-0.24300627 0.11560815 0  
-0.40192315 -0.4008276 0  
0.4008276 -0.40192315 0  
0.40192315 0.4008276 0  
-0.4008276 0.40192315 0  
0.06409326 -0.40289903 0  
0.40289903 0.06409326 0  
-0.06409326 0.40289903 0  
-0.40289903 -0.06409326 0  
0.2962961 -0.23982804 0  
0.23982804 0.2962961 0  
-0.2962961 0.23982804 0  
-0.23982804 -0.2962961 0  
-0.28087237 -0.21196799 0  
0.21196799 -0.28087237 0  
0.28087237 0.21196799 0  
-0.21196799 0.28087237 0  
-0.0901279 0.007867504 0  
-0.05002927 -0.07494272 0  
0.0873353 -0.009871756 0  
0.0071518295 0.09216282 0  
-0.14120433 -0.1484696 0  
-0.14581114 0.13960092 0  
0.1458264 -0.14505939 0  
0.13960092 0.14581114 0  
0.41838804 -0.3182741 0  
0.3182741 0.41838804 0  
-0.41838804 0.3182741 0  
-0.3182741 -0.41838804 0  
0.32118136 -0.41712493 0  
0.41712493 0.32118136 0  
-0.32118136 0.41712493 0  
-0.41712493 -0.32118136 0  
-0.19707234 -0.014843048 0  
0.018050108 -0.20183705 0  
0.19707234 0.014843048 0  
-0.014843048 0.19707234 0  
-0.10938372 -0.41847488 0  
0.41847488 -0.10938372 0  
0.10938372 0.41847488 0  
-0.41847488 0.10938372 0  
0.15773043 -0.4267032 0  
0.4267032 0.15773043 0  
-0.15773043 0.4267032 0  
-0.4267032 -0.15773043 0  
-0.3204562 -0.07174808 0  
0.07174808 -0.3204562 0  
0.3204562 0.07174808 0  
-0.07174808 0.3204562 0  
0.02801032 -0.07269879 0  
-0.31817523 0.069836795 0  
-0.069836795 -0.31817523 0  
0.31817523 -0.069836795 0  
0.069836795 0.31817523 0  
0.43106207 -0.17757268 0  
0.17757268 0.43106207 0  
-0.43106207 0.17757268 0  
-0.17757268 -0.43106207 0  
0.0703783 0.071201205 0  
-0.051593844 0.064346604 0  
0.099701226 -0.08333426 0  
0.2863281 -0.17248559 0  
0.17248559 0.2863281 0  
-0.2863281 0.17248559 0  
-0.17248559 -0.2863281 0  
-0.2341888 0.04979648 0  
-0.049194112 -0.231281 0  
0.23358595 -0.04946041 0  
0.04979648 0.2341888 0  
-0.009939441 -0.13691185 0  
-0.26560438 -0.17864102 0  
0.17864102 -0.26560438 0  
0.26560438 0.17864102 0  
-0.17864102 0.26560438 0  
0.013302229 -0.43510666 0  
0.43510666 0.013302229 0  
-0.013302229 0.43510666 0  
-0.43510666 -0.013302229 0  
0.09432827 0.114700764 0  
-0.11539384 0.093188405 0  
-0.3413634 -0.005100272 0  
0.005100272 -0.3413634 0  
0.3413634 0.005100272 0  
-0.005100272 0.3413634 0  
-0.19817708 -0.3508856 0  
0.3508856 -0.19817708 0  
0.19817708 0.3508856 0  
-0.3508856 0.19817708 0  
-0.34100306 -0.27216324 0  
0.27216324 -0.34100306 0  
0.34100306 0.27216324 0  
-0.27216324 0.34100306 0  
-0.20269383 -0.14403741 0  
0.14393912 -0.2028372 0  
0.2026342 0.14393856 0  
-0.14393856 0.2026342 0  
-0.1030633 -0.10524017 0  
-0.4394695 -0.104853734 0  
0.104853734 -0.4394695 0  
0.4394695 0.104853734 0  
-0.104853734 0.4394695 0  
-0.44156647 -0.44156647 0  
0.44156647 -0.44156647 0  
0.44156647 0.44156647 0  
-0.44156647 0.44156647 0  
-0.2683254 -0.44465622 0  
0.44465622 -0.2683254 0  
0.2683254 0.44465622 0  
-0.44465622 0.2683254 0  
0.2654342 -0.4435478 0  
0.4435478 0.2654342 0  
-0.2654342 0.4435478 0  
-0.4435478 -0.2654342 0  
-0.27373606 -0.34534052 0  
0.34534052 -0.27373606 0  
0.27373606 0.34534052 0  
-0.34534052 0.27373606 0  
-0.05307205 -0.4481981 0  
0.4481981 -0.05307205 0  
0.05307205 0.4481981 0  
-0.4481981 0.05307205 0  
-0.35614902 -0.19390328 0  
0.19390328 -0.35614902 0  
0.35614902 0.19390328 0  
-0.19390328 0.35614902 0  
-0.14022674 -0.012452113 0  
0.14171903 0.011271359 0  
-0.01125192 0.14089845 0  
-0.19556868 -0.06932378 0  
0.070511825 -0.19668652 0  
0.19556868 0.06932378 0  
-0.06932378 0.19556868 0  
-0.24951252 -0.039742906 0  
0.04037078 -0.2503529 0  
0.24951252 0.039742906 0  
-0.039742906 0.24951252 0  
0.44100407 -0.36164257 0  
0.36164257 0.44100407 0  
-0.44100407 0.36164257 0  
-0.36164257 -0.44100407 0  
-0.4451273 -0.36589316 0  
0.36589316 -0.4451273 0  
0.4451273 0.36589316 0  
-0.36589316 0.4451273 0  
0.1121834 -0.30242515 0  
0.30242515 0.1121834 0  
-0.1121834 0.30242515 0  
-0.30242515 -0.1121834 0  
-0.115146436 -0.19087775 0  
0.19190264 -0.11309679 0  
0.11520548 0.19263776 0  
-0.19263776 0.11520548 0  
-0.08287991 -0.37025127 0  
0.37025127 -0.08287991 0  
0.08287991 0.37025127 0  
-0.37025127 0.08287991 0  
0.23791528 -0.24381089 0  
0.24381089 0.23791528 0  
-0.23791528 0.24381089 0  
-0.24381089 -0.23791528 0  
-0.44626984 -0.21174923 0  
0.21174923 -0.44626984 0  
0.44626984 0.21174923 0  
-0.21174923 0.44626984 0  
0.35174853 -0.37705234 0  
0.37705234 0.35174853 0  
-0.35174853 0.37705234 0  
-0.37705234 -0.35174853 0  
-0.048605647 -0.023262763 0  
-0.1551113 -0.21381997 0  
0.21381997 -0.1551113 0  
0.1551113 0.21381997 0  
-0.21381997 0.1551113 0  
-0.29403278 -0.30027482 0  
0.30027482 -0.29403278 0  
0.29403278 0.30027482 0  
-0.30027482 0.29403278 0  
0.12173745 -0.390654 0  
0.390654 0.12173745 0  
-0.12173745 0.390654 0  
-0.390654 -0.12173745 0  
-0.12236246 -0.2979882 0  
0.2979882 -0.12236246 0  
0.12236246 0.2979882 0  
-0.2979882 0.12236246 0  
-0.0945969 -0.046371013 0  
0.035276897 -0.027358124 0  
-0.0076714605 0.051946 0  
-0.30809116 -0.17165439 0  
0.17165439 -0.30809116 0  
0.30809116 0.17165439 0  
-0.17165439 0.30809116 0  
-0.16592422 -0.10879113 0  
0.10700909 -0.1687818 0  
0.16864619 0.10664837 0  
-0.10664837 0.16864619 0  
-0.16784625 -0.38069874 0  
0.38069874 -0.16784625 0  
0.16784625 0.38069874 0  
-0.38069874 0.16784625 0  
-0.4563872 -0.05993889 0  
0.05993889 -0.4563872 0  
0.4563872 0.05993889 0  
-0.05993889 0.4563872 0  
0.31103167 -0.37412483 0  
0.37412483 0.31103167 0  
-0.31103167 0.37412483 0  
-0.37412483 -0.31103167 0  
-0.3909646 -0.012754724 0  
0.012754724 -0.3909646 0  
0.3909646 0.012754724 0  
-0.012754724 0.3909646 0  
0.44915667 -0.21679194 0  
0.21679194 0.44915667 0  
-0.44915667 0.21679194 0  
-0.21679194 -0.44915667 0  
0.045831423 0.12033131 0  
-0.12662303 0.045442794 0  
-0.3107799 -0.37355793 0  
0.37355793 -0.3107799 0  
0.3107799 0.37355793 0  
-0.37355793 0.3107799 0  
0.04152367 0.021693805 0  
-0.08040017 -0.2675595 0  
0.26794365 -0.08044455 0  
0.080500565 0.2680441 0  
-0.2680441 0.080500565 0  
-0.13753757 -0.45578164 0  
0.45578164 -0.13753757 0  
0.13753757 0.45578164 0  
-0.45578164 0.13753757 0  
-0.05507968 -0.12135967 0  
0.14172421 -0.09428923 0  
0.2571752 -0.19664502 0  
[...]
POINT_DATA 2173 
SCALARS T float 
LOOKUP_TABLE default 
-3.728334173124872e-18 
6.123449474622076e-18 
2.913565808664672e-20 
1.0085260919711463e-19 
-4.711648893914299e-17 
3.2914989133173343e-18 
-2.2162285727603772e-16 
2.2307187878298765e-16 
1.9590908202202452e-16 
1.2773309263159412e-16 
1.990908491225774e-16 
3.9462718764089896e-17 
-8.769587296801153e-17 
2.1404347253553852e-16 
-3.8104922478064336e-16 
3.8313288629943895e-16 
-3.314944015340995e-16 
-2.165629679783912e-16 
3.8713963791078017e-16 
-7.768386750670913e-16 
3.3480953257333024e-16 
-3.120164886398938e-16 
-2.6779693033202475e-18 
6.062815284946908e-17 
-1.1022703613672376e-16 
3.305409755585087e-16 
-9.540369331091862e-16 
1.990098265708114e-15 
-1.2044803726550165e-16 
1.1604249900929512e-15 
-6.068063762241408e-16 
7.230279851287167e-16 
-9.232988899998811e-16 
3.200174299834588e-16 
5.806915574420638e-16 
1.9799769262372716e-15 
1.740899248201401e-16 
1.0424905018315408e-15 
2.0645971596691597e-16 
-1.0405005179462641e-16 
3.192463651500858e-16 
-1.0003378939972491e-16 
-3.1104696154042215e-16 
2.831905530791236e-16 
-7.526551989684678e-18 
-4.792541721590622e-16 
1.362415640140058e-16 
1.0124952562783007e-16 
1.1644045022941802e-16 
1.1107119356722703e-15 
3.0310770509929464e-16 
2.1234170957037312e-15 
-9.452975912265926e-16 
3.93039822697916e-16 
-8.080088410066475e-17 
2.746628898624989e-16 
2.0826900670929007e-16 
-2.576195017566003e-16 
3.911672884492857e-16 
-2.4562519366740803e-16 
9.396912768401199e-17 
1.841233566965134e-16 
-3.5082831625596525e-16 
2.9993764066251865e-16 
-2.1845746468374627e-16 
1.8986204280995074e-17 
2.9235132853011453e-18 
-3.933172989654708e-18 
-6.4500482322768595e-18 
-2.663525621970695e-18 
-8.43378211074749e-19 
-2.2372371797375233e-18 
2.330126178190756e-18 
-1.563426300019078e-18 
-2.333458353864753e-18 
4.680471455797292e-18 
2.202847404240819e-18 
1.1382892098473349e-18 
-1.4091187068828724e-18 
4.7550179404107324e-18 
-8.02664619688783e-19 
-1.287474490324124e-19 
-2.2130641264388546e-20 
-4.0059310613129766e-20 
-4.9676530268196214e-18 
2.5381401235794048e-19 
-1.490314052836362e-18 
-9.689859386063245e-19 
8.951290895902992e-19 
7.131096236857953e-18 
-2.2223855858398196e-18 
1.0870031157970803e-17 
-6.319649147755959e-18 
3.3908978160934034e-18 
4.73353043844346e-18 
-3.6556901142164156e-18 
1.4725852164373506e-17 
-1.0386748554226865e-17 
1.0499413392216958e-17 
-2.011778030932122e-18 
-1.9019254904422596e-18 
-3.665518695190507e-18 
5.863328400491811e-18 
-7.636699970467489e-18 
7.802400994761893e-18 
-1.4379403464072972e-17 
2.5501459812134835e-18 
2.754001518671278e-18 
-5.6927616334259835e-18 
1.3497120023139942e-17 
-1.5933723284709687e-17 
2.1476679682493177e-17 
2.8123888159299906e-18 
-1.6674871524980197e-17 
-2.2517285661583155e-17 
-1.0823234790193088e-17 
-3.126661165925773e-17 
-3.0902822845088735e-17 
-2.0882839573448853e-18 
-1.1911298757186428e-17 
3.1918898652230304e-19 
-1.9899738305039002e-19 
1.0431965130794233e-17 
8.185784799543167e-18 
3.057982929091056e-17 
4.449389684416997e-17 
2.879774051260676e-17 
1.1447669652948646e-17 
4.43590766915303e-21 
-7.766107279526941e-17 
5.855475678029072e-17 
-8.107499573108762e-17 
3.10594355142424e-17 
2.2415952270196887e-17 
-1.1661683735117745e-17 
5.522642762235521e-17 
-7.563800535980838e-17 
3.973908395421794e-17 
-2.5878241320343513e-17 
-2.909662734412381e-17 
1.3255989799125588e-17 
-1.7591824097377492e-17 
4.173187715284986e-17 
-7.116325776641133e-17 
6.211276232699298e-17 
-1.4101151647007109e-16 
-5.909682153872762e-18 
1.2389225119610112e-16 
-2.4838820175403677e-16 
1.828333282862758e-16 
1.2856241238119408e-17 
-2.114768451756726e-16 
2.624462381546936e-16 
-1.4572003223402913e-16 
2.1700585976313794e-16 
-3.427424614090958e-17 
-9.513192219108915e-17 
1.6796724173315753e-16 
1.0962981434566593e-18 
3.501148341851133e-17 
1.69860968988408e-6 
0.00036603409956725933 
0.0038368300003144384 
-1.318689986746112e-5 
-7.446892604784981e-6 
-5.5613315476083094e-5 
0.0002546915713769884 
0.4533545309228706 
3.652533138350312e-7 
-0.00012491891435134178 
-8.421317944469935e-7 
3.7388355941216283e-6 
3.062267236080675e-5 
0.00021312363553111112 
0.0008608100524471261 
0.012480469267711668 
2.4064291686705658e-5 
-0.00023897814881866072 
0.01516991008146415 
-5.324741595933671e-7 
4.8158049055250824e-5 
8.865348961185261e-5 
0.000120451883876406 
1.9060193070623356e-5 
-0.00019194266164399945 
0.00045337537435622506 
0.3012296514386713 
-3.614577210349324e-6 
9.153690530511624e-5 
-0.00031861497166821344 
0.016879538870476368 
1.65334784709193e-6 
-1.590803577882597e-5 
-0.0019418684495183375 
-1.2848253347109187e-6 
-1.1812198118860867e-5 
-0.00031021727827457596 
-0.00047154303221386525 
3.0956086094191816e-6 
-8.691015579955385e-6 
-4.2365638588859674e-5 
0.00011733205294800307 
0.0013783903161797317 
0.031043357922794144 
3.2022375772572937e-6 
-0.0010112377111636396 
0.23994319400417766 
1.1407099623704315e-6 
2.109237346903846e-5 
0.00019955219638635767 
0.00024513876604760707 
-3.5063672104710328e-6 
2.7554370156139143e-6 
-0.0004576097173090151 
0.0003505802781935147 
8.860641207469116e-6 
-1.8250094011287443e-5 
2.0319863753281576e-5 
-9.676190493930292e-7 
2.6675775806451313e-6 
0.0001638456516180965 
0.00016154594954449265 
0.0010358262309922192 
-1.867893092434238e-5 
-2.1201511657581862e-5 
4.299438700437145e-5 
-0.0002223688407662878 
0.004570124285278782 
-8.526441597512915e-6 
-0.00041244947864382684 
4.848906808358466e-5 
0.012522892233528156 
2.0922234611990985e-5 
-0.0005272650409676637 
-2.609345484486288e-6 
3.869019591951318e-6 
1.1671045027392614e-5 
0.0016109960326861964 
-7.310828699551191e-7 
-1.3563392367244457e-5 
0.0001472324307281077 
-2.4924036251199553e-5 
-0.0004637995513915091 
0.2904221162003058 
9.166145914080774e-6 
-0.0003900368015877311 
0.00036849866715503205 
-1.3562417557044347e-8 
-3.3010914819281726e-5 
0.0007459961655254875 
-2.2307801838623915e-5 
-2.596189787126529e-6 
8.525390580753891e-5 
-0.00012662809614464552 
-1.4455016642474967e-5 
0.0374011319544542 
1.3286787446597212e-5 
-7.89957506849529e-5 
1.8382771509645633e-5 
-0.0004348528345743074 
0.22808774678986965 
4.753940484007491e-6 
-0.0008037204068122072 
-5.156919318555685e-6 
-4.150661758692149e-5 
-0.0005088928772997835 
0.00011195924207164587 
6.673922001939253e-6 
0.0017513893208234675 
0.018771835530634898 
4.191011422115481e-8 
2.9481376163681402e-5 
-0.00087674728706177 
7.64306772263286e-6 
0.00010186509217274814 
0.6877814014966447 
-3.329043435547681e-6 
7.52330877643211e-5 
0.0002607445771590723 
0.0018982858328765067 
3.328219281380757e-5 
-4.837865895388652e-7 
-0.00029016158787452124 
-0.0003246541364549428 
1.3545515231416728e-6 
-6.383293300729429e-5 
3.601496349900723e-5 
4.26794727202008e-5 
-1.4032770029251744e-5 
-0.0005313086389983847 
0.10494197439762395 
3.875893253721914e-6 
-0.00010431369975585545 
0.001017229977209017 
-2.34913997800179e-6 
1.3230662998327336e-5 
-3.0952039866270933e-5 
-0.0005745041413495823 
-1.4722679782511257e-6 
3.6127120283480075e-6 
-0.00035765295246888054 
-0.0014167433123010629 
0.0014235569829694253 
-1.1087065879924473e-5 
-4.733123285535375e-5 
3.987048292361518e-5 
0.0006389332940028907 
-3.449097190099541e-5 
-7.2688378469421785e-6 
4.04069400203485e-5 
0.0001132382485366017 
-2.1954762444475813e-6 
1.3196963335662155e-6 
-0.00014302534513200354 
-0.0009723852934372698 
-3.910452511687431e-6 
3.2844622623725405e-6 
0.0011660813650828737 
1.3801152795828575e-6 
1.500810069681717e-5 
-0.00010504401127880401 
-5.079783784472227e-5 
-0.0010511217670236771 
-1.301997725350959e-6 
2.4836942596305402e-5 
2.507614857217128e-5 
0.00023811472799730487 
3.1556666546508593e-6 
-2.728618627439925e-5 
0.00032737370599633225 
0.001974509572713326 
-1.3582936817899476e-5 
-1.0591975352775546e-5 
-0.00036154547158045455 
0.05789335141549089 
1.5234460973063928e-5 
-1.6623194114010246e-5 
-0.0017502904484403507 
0.0634743230097132 
5.107332513405954e-6 
-2.8589604917481832e-5 
-0.00028744221094022037 
0.27601030782451924 
3.917592959338419e-6 
0.0007254685794740257 
-4.603973554999312e-6 
7.31062695069215e-7 
0.00011762327365504908 
0.00021670422072411446 
0.0005310729465190127 
-3.2202053894614966e-6 
1.1241138933571839e-5 
0.0011541722258978336 
0.008480765408993736 
-1.1109255077722818e-6 
0.0001904369782564344 
0.00013252629547004315 
0.14637439995109897 
-2.5487242949819247e-6 
1.759414018647769e-5 
-0.00022237380512232736 
0.024692474230493415 
-1.6316515476072344e-8 
3.3088180898972857e-5 
-0.0034961066383307456 
-4.131971054966194e-7 
-1.0317158331727588e-5 
-0.00036914095972822474 
-7.766344476102595e-5 
0.0004978401740906538 
-3.3951985887794417e-7 
5.6876051058136545e-6 
-0.00028748672530642353 
5.459307739558797e-7 
6.380494219773711e-6 
-7.597546671926644e-5 
4.527306799563267e-5 
0.0003367539991567616 
0.04359586882561071 
-3.6671740816979447e-6 
-1.5566905839071212e-5 
0.00015308737685862058 
-0.0009014165833272943 
4.5029980977190906e-7 
1.3489840684242593e-5 
-0.00026708158478749996 
-0.0001687321687128324 
-5.498655069894612e-6 
0.00010246543997168821 
-0.00015900114287493807 
0.10608457550074295 
1.267382067780834e-7 
4.9569777803310805e-5 
-0.0007390874247174663 
0.00014898849903394103 
2.5051544123568007e-6 
0.00017586277358890148 
0.0019803546736062417 
-1.9178927124681733e-5 
-1.0180296685719169e-5 
0.0003877264197356109 
0.002522838814773722 
0.005335237224252693 
3.648044519270824e-6 
0.00010097641417656149 
0.0013030636118142379 
-7.455060445229946e-7 
-2.2093656040815436e-5 
-1.5595434071067903e-5 
-0.0007392767205861181 
-0.0001783981473453904 
-7.76794649923692e-7 
0.0004441343510375211 
3.314264586503088e-7 
-7.311813262126929e-6 
9.516715759662946e-6 
0.00016202542910538953 
-0.0005397217719648855 
0.00805585648517817 
-1.4217874119097545e-6 
-0.00010755360452358129 
7.672691506557074e-7 
6.652213962597828e-5 
-0.00014805516666749422 
-1.1006266993269254e-6 
4.349673269330217e-5 
-0.00013813318950578864 
-0.0005731199827579765 
-9.61849115286273e-7 
3.0283806807478876e-5 
4.284248859278452e-5 
0.0007002094512239685 
0.4830443832851048 
1.6171679815129692e-6 
3.5432403319327347e-5 
0.00023369116937864087 
-8.199676948670486e-5 
-1.6543063464386622e-6 
2.9823633452392942e-5 
-6.871179786870889e-5 
0.04404962730644522 
0.005121722407395496 
-1.840429554432346e-6 
-1.4787852326261817e-5 
0.00045513033881963596 
0.03878417606629356 
1.9341526265619326e-5 
-0.00015803208182794265 
-0.00018474560074898552 
-3.358851863350977e-7 
-8.872730816076755e-6 
0.0005509656560054331 
-3.272117275802795e-6 
-2.8917862049896155e-5 
-9.19937396140607e-5 
-0.0004603452821351429 
1.7055397524275308e-6 
-3.2784710181334332e-6 
7.532252568133247e-5 
0.004060553802094603 
-7.659587053213317e-6 
-0.00012467251780747297 
-0.000517202563272517 
0.07686268669312273 
7.881355472688467e-6 
2.2519837198245417e-5 
0.004370486538226124 
-3.4128376652715415e-5 
0.00042957951416412585 
0.4773225244292066 
-3.2730124808959442e-6 
0.00017285873017710857 
-1.7410750064493793e-5 
-0.00020118773293397745 
0.6110361274037924 
2.5624474397969225e-6 
0.00022069950315987182 
0.0004107586856816031 
-4.880794852301878e-6 
-2.101117520864107e-6 
-0.004199067789665652 
0.00044133146708043747 
0.0022578476696835693 
-0.0001053386555910272 
-5.156095242649628e-6 
-0.00010488797675486788 
0.0006945575554194144 
0.00020640214061823513 
-2.010628869374237e-6 
1.1113392009106764e-5 
-0.00014321806708616466 
7.367739539211233e-5 
0.00047125224589727587 
0.12237429793939392 
1.6105935678646738e-6 
4.40020146169895e-5 
0.00037766779586884006 
-2.550748407888673e-6 
2.420397224819546e-5 
-0.0009372116854135579 
0.027085713573950527 
-3.830844173905995e-6 
-6.179551791565002e-5 
0.0002540260126065419 
0.0006294405711460756 
0.0038218445498352234 
5.969255462810073e-7 
0.00016062656241384204 
7.822977672715264e-6 
0.01498463764878177 
-7.247474749896134e-6 
-0.00018074883091142755 
-8.827209083758536e-7 
3.139970899715731e-6 
-8.402903002883042e-5 
-0.0005764051820215836 
0.005015435730298937 
-1.0584425662695e-6 
1.6687823817316635e-5 
2.4395159023136496e-5 
0.00011354796208788493 
7.609753971663042e-6 
2.4369939455194054e-5 
0.0001224111901476139 
0.00021136735610863397 
5.2676927807493955e-6 
1.8117142529616325e-6 
0.00012760770709188316 
1.117768313683256e-6 
-3.439791209754246e-6 
0.00011403804473920017 
-2.8462314016161553e-5 
1.4395611245568515e-6 
2.7402450470907303e-7 
4.086179658013107e-5 
0.00010394724838903368 
-2.712410520260387e-5 
0.5268261303277323 
3.813294057603276e-6 
-8.673830709333451e-5 
0.08238664031573545 
1.1974968796217176e-5 
-1.0051164973242967e-6 
-3.2478584001599657e-6 
-9.779494571581311e-5 
6.972405527895897e-5 
0.14762463378003857 
-1.0928118128065609e-6 
2.3008936370152823e-5 
-0.00026199821231866595 
0.002871383540807749 
-8.154723869814193e-6 
0.0006943525304287825 
-9.667259247358111e-6 
-0.0005444234001057805 
-2.269879183988161e-5 
-8.590847591529793e-6 
-0.0003191777166952421 
4.5178978897086505e-6 
4.636199482559182e-5 
0.0003882433490759555 
-2.676858950564206e-6 
-0.0006418377280963282 
0.00048052143503096175 
0.014073344196946478 
3.258623955136143e-5 
-0.00026113476181045245 
-0.0003089776558425461 
5.4021949385362335e-6 
2.870206657822621e-7 
0.05414018843759916 
-3.1975520598828175e-6 
2.0404124901669407e-5 
-0.00042241265995268375 
0.0011292994826189835 
3.040725871936868e-5 
-0.003071072425135772 
6.572423583945097e-7 
-3.1043625535528104e-6 
-0.00014360343830277313 
5.213020013769199e-6 
-0.00028905230798312575 
0.061268787210805364 
-4.295848930168123e-6 
7.097110752420542e-5 
-0.0012962741975746748 
-1.3995541346990237e-6 
1.2403320266152311e-5 
0.0007985654605785013 
0.4493320259253807 
-4.475750412655858e-6 
6.042007712813366e-5 
-0.00041291877148657663 
-1.6228067303524938e-6 
7.346442143009646e-6 
0.00010866220517285219 
-9.949987279517094e-5 
-0.00011311502412112806 
4.121817412197739e-6 
5.536817431018413e-5 
0.0001399234663924557 
0.010225447504213803 
-2.242653027684099e-6 
-1.3707976239450145e-5 
-0.00010630636808682149 
0.0012586069110258474 
6.44790089164572e-7 
5.5328718781637135e-6 
0.0012440041672232786 
-2.392554213551203e-5 
-0.0010600346919806558 
2.6450923286520544e-6 
3.0788317102243546e-6 
-0.0001734387663817544 
4.7570761368393835e-5 
0.0001622239285176209 
5.8870336690597e-7 
2.7210057351975586e-6 
-0.0004137381718978132 
-0.000812140824851477 
0.002068742337042086 
-1.6161183230972987e-5 
4.5815689856054206e-5 
0.20488033375556663 
-1.2389086514692798e-6 
-1.1754464046311058e-5 
-0.0012965701664065783 
-0.0002641524904880527 
-0.0008816248212904985 
3.0115311249931454e-6 
7.195690525657487e-5 
0.00023511000897037196 
0.00012248141273985054 
0.0001124719979551417 
-6.017644308305673e-7 
1.4388288567204295e-7 
0.007948112784253699 
5.259680136693937e-5 
1.3671975218321631e-5 
9.13624698913286e-5 
0.00029115247047518765 
0.0017394082565318125 
2.4030170847333334e-6 
5.195068788143017e-5 
0.00010606653182810446 
-0.0009127433258106785 
0.00018108358491426447 
0.010907713954688921 
0.08583928181465404 
0.03709280388228398 
-1.235174528013425e-5 
5.424865937276305e-8 
-1.2740547231568653e-5 
1.4171947332681923e-5 
1.2050405459361488e-5 
-3.5607650531265906e-5 
0.0004125975424618665 
-0.00025361495322604816 
-0.00018836735724182528 
0.6078904500877976 
0.40245810963362133 
0.5076235019937169 
5.044013312105927e-6 
-2.3358016272467253e-6 
1.214279209961766e-6 
-1.1620973669618758e-5 
1.7387681287482705e-5 
-1.8185395535019766e-5 
-0.0005058695017361032 
0.0005683029211027949 
-1.7132919203321452e-5 
3.984793693570264e-5 
0.009247190804146613 
0.04106285797807133 
-1.0307181174794525e-6 
-1.4143176326671339e-5 
9.7319795734146e-6 
-6.521731140050886e-5 
0.00010751366276726812 
-0.00015218191876676968 
0.575701756292869 
0.4066886155869219 
2.1228579182426682e-6 
2.224588781532798e-7 
5.597608467483579e-5 
-5.480491821488168e-6 
-1.8027445546452178e-6 
-7.058195770521371e-5 
-0.0001235690860630206 
1.7368539312872664e-5 
0.000515184866151999 
-0.000275355634786972 
-0.0001505609068046382 
8.236212451872717e-5 
0.00023766030752072871 
0.0010478585982921732 
0.0003261857327025666 
-0.0003178127325418462 
-6.064857955696636e-7 
-4.375973357655111e-6 
9.261695603115245e-7 
1.2948540839608194e-5 
5.218681319906457e-6 
-6.7182199609274146e-6 
-3.824577230435928e-5 
4.649615173257058e-5 
-0.0004441241716039091 
6.123136504130019e-5 
-3.409135999457025e-6 
8.928969911377132e-7 
4.667491262855944e-6 
1.903672225462645e-5 
3.964738981408081e-5 
0.00011767507721179341 
2.9936348907261547e-6 
5.6276623871305326e-5 
-1.2398483342358953e-6 
-9.222124199905682e-8 
2.035540304769794e-5 
1.5876145428871594e-5 
-9.192448398810554e-5 
1.0694198111088508e-5 
2.9311352395154667e-5 
0.0005155224296929914 
-0.000402318593097131 
-3.122484927742632e-5 
0.5248426385551332 
0.2793155347382475 
0.2597899136257002 
-1.1932004763239366e-6 
-2.4839112725536807e-6 
-5.628607559200893e-7 
0.000978322286585916 
-0.0003467964015982808 
0.00012915533305536624 
-5.852336848872343e-7 
6.447877899112083e-7 
2.490893781146687e-6 
-3.059507106516107e-5 
2.0289270929803157e-5 
2.644765193674079e-6 
-2.4590642933487953e-5 
4.64934642406824e-5 
2.2910101139216582e-5 
-0.0009576101753330787 
0.0006144986145068211 
-0.00036325757795335246 
7.696672079241565e-7 
-2.2998310626499667e-6 
4.867578145839151e-7 
9.014442304927104e-6 
-1.4603707701851329e-5 
-2.694817482634718e-6 
-0.00010550072262747064 
0.00013079350114247429 
0.00011565756493708082 
6.338683933980391e-5 
-0.0004624842055034826 
4.803705937304356e-6 
2.2996352872552194e-5 
3.067286082163507e-5 
-9.6575299276145e-7 
-9.188076036978164e-6 
-9.743467300360272e-6 
0.0003668808171943966 
0.0005397741014885031 
1.8991650327014195e-6 
1.3691954919437762e-6 
2.095121150605194e-6 
6.331692581035161e-6 
0.000231636321640058 
-4.813718064996239e-5 
-0.00022748194053200354 
0.0005622302818438887 
0.0002928223352102004 
-8.352295234664416e-5 
3.3638848829248805e-5 
-0.00030182509126271215 
-0.0002993201775037759 
2.4946036661904543e-6 
-2.402722320059573e-7 
6.847715848581772e-6 
7.436317562018206e-6 
0.00011910637110823677 
3.911147032547192e-5 
0.00017340119768989522 
-8.555425326481202e-5 
1.077942737189308e-6 
1.3045136117089838e-6 
-3.0815077468204763e-6 
2.8909030812489813e-6 
-4.443498683452787e-5 
-2.6262720073221377e-5 
-0.0010431436203425881 
0.0008570927444629676 
0.2975292279909492 
0.12972527397019165 
8.482263794795411e-7 
-1.0057248716008632e-7 
-3.3249031018223044e-5 
2.308579889551104e-5 
4.57819205856309e-5 
-7.755018546329567e-5 
0.0004550096658337988 
0.0008866706470787997 
-3.0272447479010786e-7 
1.9163706426412607e-6 
-6.775240544037463e-7 
1.7852584886392995e-5 
-1.0164114642482844e-5 
-1.1476103739920545e-5 
1.716491132012915e-8 
1.2285388026408608e-5 
-0.000397789511672784 
0.00027547913113606893 
-0.0008808969519741336 
0.0008455870966543366 
-4.401810358376446e-6 
1.207448585643404e-6 
-5.649620439430816e-5 
-1.2661444739525145e-5 
0.0011793519151663597 
-0.00020892295154051294 
-0.0014854100759674983 
2.7501588509300797e-5 
6.320471170028754e-5 
-1.0620133504162235e-5 
-5.002821563190043e-6 
1.1289984429952955e-5 
3.6563294185359112e-6 
-2.9650720603999678e-5 
-1.0427568736475616e-5 
-7.49701503094726e-5 
0.00027883806954919307 
-0.00022320715753374953 
-8.644344070698245e-5 
1.7084468744206358e-7 
-1.0348744729653672e-8 
3.542176843695846e-7 
8.459015017692003e-7 
-9.985556032713625e-7 
1.6883622933640442e-5 
-3.2939324090427256e-5 
4.851815862985699e-5 
-7.14547638767337e-5 
0.00011617668258998357 
-9.383403447878799e-5 
0.00016936017138286687 
0.00033103409215721563 
8.171236288270533e-7 
-1.3080588775740516e-6 
1.7140363555814456e-6 
8.803377428950393e-6 
0.0006167813539823813 
0.0004736306295139367 
-0.0001777175916681912 
-0.0004214428026834482 
0.00015134001568308273 
0.00015576259785678309 