# vtk DataFile Version 3.0 
Unstructured Grid 
ASCII 
DATASET UNSTRUCTURED_GRID
POINTS 2173 float 
-0.5 -0.5 0  
0.5 -0.5 0  
0.5 0.5 0  
-0.5 0.5 0  
-0.475 -0.5 0  
-0.45 -0.5 0  
-0.425 -0.5 0  
-0.4 -0.5 0  
-0.375 -0.5 0  
-0.35 -0.5 0  
-0.325 -0.5 0  
-0.3 -0.5 0  
-0.275 -0.5 0  
-0.25 -0.5 0  
-0.225 -0.5 0  
-0.2 -0.5 0  
-0.175 -0.5 0  
-0.15 -0.5 0  
-0.125 -0.5 0  
-0.1 -0.5 0  
-0.075 -0.5 0  
-0.05 -0.5 0  
-0.025 -0.5 0  
-1.3761214e-12 -0.5 0  
0.025 -0.5 0  
0.05 -0.5 0  
0.075 -0.5 0  
0.1 -0.5 0  
0.125 -0.5 0  
0.15 -0.5 0  
0.175 -0.5 0  
0.2 -0.5 0  
0.225 -0.5 0  
0.25 -0.5 0  
0.275 -0.5 0  
0.3 -0.5 0  
0.325 -0.5 0  
0.35 -0.5 0  
0.375 -0.5 0  
0.4 -0.5 0  
0.425 -0.5 0  
0.45 -0.5 0  
0.475 -0.5 0  
0.5 -0.475 0  
0.5 -0.45 0  
0.5 -0.425 0  
0.5 -0.4 0  
0.5 -0.375 0  
0.5 -0.35 0  
0.5 -0.325 0  
0.5 -0.3 0  
0.5 -0.275 0  
0.5 -0.25 0  
0.5 -0.225 0  
0.5 -0.2 0  
0.5 -0.175 0  
0.5 -0.15 0  
0.5 -0.125 0  
0.5 -0.1 0  
0.5 -0.075 0  
0.5 -0.05 0  
0.5 -0.025 0  
0.5 -1.3761214e-12 0  
0.5 0.025 0  
0.5 0.05 0  
0.5 0.075 0  
0.5 0.1 0  
0.5 0.125 0  
0.5 0.15 0  
0.5 0.175 0  
0.5 0.2 0  
0.5 0.225 0  
0.5 0.25 0  
0.5 0.275 0  
0.5 0.3 0  
0.5 0.325 0  
0.5 0.35 0  
0.5 0.375 0  
0.5 0.4 0  
0.5 0.425 0  
0.5 0.45 0  
0.5 0.475 0  
0.475 0.5 0  
0.45 0.5 0  
0.425 0.5 0  
0.4 0.5 0  
0.375 0.5 0  
0.35 0.5 0  
0.325 0.5 0  
0.3 0.5 0  
0.275 0.5 0  
0.25 0.5 0  
0.225 0.5 0  
0.2 0.5 0  
0.175 0.5 0  
0.15 0.5 0  
0.125 0.5 0  
0.1 0.5 0  
0.075 0.5 0  
0.05 0.5 0  
0.025 0.5 0  
1.3761214e-12 0.5 0  
-0.025 0.5 0  
-0.05 0.5 0  
-0.075 0.5 0  
-0.1 0.5 0  
-0.125 0.5 0  
-0.15 0.5 0  
-0.175 0.5 0  
-0.2 0.5 0  
-0.225 0.5 0  
-0.25 0.5 0  
-0.275 0.5 0  
-0.3 0.5 0  
-0.325 0.5 0  
-0.35 0.5 0  
-0.375 0.5 0  
-0.4 0.5 0  
-0.425 0.5 0  
-0.45 0.5 0  
-0.475 0.5 0  
-0.5 0.475 0  
-0.5 0.45 0  
-0.5 0.425 0  
-0.5 0.4 0  
-0.5 0.375 0  
-0.5 0.35 0  
-0.5 0.325 0  
-0.5 0.3 0  
-0.5 0.275 0  
-0.5 0.25 0  
-0.5 0.225 0  
-0.5 0.2 0  
-0.5 0.175 0  
-0.5 0.15 0  
-0.5 0.125 0  
-0.5 0.1 0  
-0.5 0.075 0  
-0.5 0.05 0  
-0.5 0.025 0  
-0.5 1.3761214e-12 0  
-0.5 -0.025 0  
-0.5 -0.05 0  
-0.5 -0.075 0  
-0.5 -0.1 0  
-0.5 -0.125 0  
-0.5 -0.15 0  
-0.5 -0.175 0  
-0.5 -0.2 0  
-0.5 -0.225 0  
-0.5 -0.25 0  
-0.5 -0.275 0  
-0.5 -0.3 0  
-0.5 -0.325 0  
-0.5 -0.35 0  
-0.5 -0.375 0  
-0.5 -0.4 0  
-0.5 -0.425 0  
-0.5 -0.45 0  
-0.5 -0.475 0  
-0.002115384 -0.00023065208 0  
-0.20714286 -0.20714286 0  
0.20714286 -0.20714286 0  
0.20714286 0.20714286 0  
-0.20714286 0.20714286 0  
-0.28155318 -0.0017231192 0  
0.0017231192 -0.28155318 0  
0.28155318 0.0017231192 0  
-0.0017231192 0.28155318 0  
0.3319978 -0.33098683 0  
0.33098683 0.3319978 0  
-0.3319978 0.33098683 0  
-0.33098683 -0.3319978 0  
-0.14015679 -0.06698606 0  
0.06698606 -0.14015679 0  
0.14015679 0.06698606 0  
-0.06698606 0.14015679 0  
-0.1387125 -0.34573975 0  
0.34573975 -0.1387125 0  
0.1387125 0.34573975 0  
-0.34573975 0.1387125 0  
0.14046866 -0.34602854 0  
0.34602854 0.14046866 0  
-0.14046866 0.34602854 0  
-0.34602854 -0.14046866 0  
-0.05869875 -0.16617337 0  
0.18217777 -0.061504476 0  
0.062312964 0.18362015 0  
-0.18362015 0.062312964 0  
-0.034321424 -0.38563195 0  
0.38563195 -0.034321424 0  
0.034321424 0.38563195 0  
-0.38563195 0.034321424 0  
0.39586002 -0.2428538 0  
0.2428538 0.39586002 0  
-0.39586002 0.2428538 0  
-0.2428538 -0.39586002 0  
0.23688246 -0.38952246 0  
0.38952246 0.23688246 0  
-0.23688246 0.38952246 0  
-0.38952246 -0.23688246 0  
-0.24287231 -0.09948847 0  
0.09948847 -0.24287231 0  
0.24287231 0.09948847 0  
-0.09948847 0.24287231 0  
-0.11560815 -0.24300627 0  
0.24300627 -0.11560815 0  
0.11560815 0.24300627 0  
-0.24300627 0.11560815 0  
-0.40192315 -0.4008276 0  
0.4008276 -0.40192315 0  
0.40192315 0.4008276 0  
-0.4008276 0.40192315 0  
0.06409326 -0.40289903 0  
0.40289903 0.06409326 0  
-0.06409326 0.40289903 0  
-0.40289903 -0.06409326 0  
0.2962961 -0.23982804 0  
0.23982804 0.2962961 0  
-0.2962961 0.23982804 0  
-0.23982804 -0.2962961 0  
-0.28087237 -0.21196799 0  
0.21196799 -0.28087237 0  
0.28087237 0.21196799 0  
-0.21196799 0.28087237 0  
-0.0901279 0.007867504 0  
-0.05002927 -0.07494272 0  
0.0873353 -0.009871756 0  
0.0071518295 0.09216282 0  
-0.14120433 -0.1484696 0  
-0.14581114 0.13960092 0  
0.1458264 -0.14505939 0  
0.13960092 0.14581114 0  
0.41838804 -0.3182741 0  
0.3182741 0.41838804 0  
-0.41838804 0.3182741 0  
-0.3182741 -0.41838804 0  
0.32118136 -0.41712493 0  
0.41712493 0.32118136 0  
-0.32118136 0.41712493 0  
-0.41712493 -0.32118136 0  
-0.19707234 -0.014843048 0  
0.018050108 -0.20183705 0  
0.19707234 0.014843048 0  
-0.014843048 0.19707234 0  
-0.10938372 -0.41847488 0  
0.41847488 -0.10938372 0  
0.10938372 0.41847488 0  
-0.41847488 0.10938372 0  
0.15773043 -0.4267032 0  
0.4267032 0.15773043 0  
-0.15773043 0.4267032 0  
-0.4267032 -0.15773043 0  
-0.3204562 -0.07174808 0  
0.07174808 -0.3204562 0  
0.3204562 0.07174808 0  
-0.07174808 0.3204562 0  
0.02801032 -0.07269879 0  
-0.31817523 0.069836795 0  
-0.069836795 -0.31817523 0  
0.31817523 -0.069836795 0  
0.069836795 0.31817523 0  
0.43106207 -0.17757268 0  
0.17757268 0.43106207 0  
-0.43106207 0.17757268 0  
-0.17757268 -0.43106207 0  
0.0703783 0.071201205 0  
-0.051593844 0.064346604 0  
0.099701226 -0.08333426 0  
0.2863281 -0.17248559 0  
0.17248559 0.2863281 0  
-0.2863281 0.17248559 0  
-0.17248559 -0.2863281 0  
-0.2341888 0.04979648 0  
-0.049194112 -0.231281 0  
0.23358595 -0.04946041 0  
0.04979648 0.2341888 0  
-0.009939441 -0.13691185 0  
-0.26560438 -0.17864102 0  
0.17864102 -0.26560438 0  
0.26560438 0.17864102 0  
-0.17864102 0.26560438 0  
0.013302229 -0.43510666 0  
0.43510666 0.013302229 0  
-0.013302229 0.43510666 0  
-0.43510666 -0.013302229 0  
0.09432827 0.114700764 0  
-0.11539384 0.093188405 0  
-0.3413634 -0.005100272 0  
0.005100272 -0.3413634 0  
0.3413634 0.005100272 0  
-0.005100272 0.3413634 0  
-0.19817708 -0.3508856 0  
0.3508856 -0.19817708 0  
0.19817708 0.3508856 0  
-0.3508856 0.19817708 0  
-0.34100306 -0.27216324 0  
0.27216324 -0.34100306 0  
0.34100306 0.27216324 0  
-0.27216324 0.34100306 0  
-0.20269383 -0.14403741 0  
0.14393912 -0.2028372 0  
0.2026342 0.14393856 0  
-0.14393856 0.2026342 0  
-0.1030633 -0.10524017 0  
-0.4394695 -0.104853734 0  
0.104853734 -0.4394695 0  
0.4394695 0.104853734 0  
-0.104853734 0.4394695 0  
-0.44156647 -0.44156647 0  
0.44156647 -0.44156647 0  
0.44156647 0.44156647 0  
-0.44156647 0.44156647 0  
-0.2683254 -0.44465622 0  
0.44465622 -0.2683254 0  
0.2683254 0.44465622 0  
-0.44465622 0.2683254 0  
0.2654342 -0.4435478 0  
0.4435478 0.2654342 0  
-0.2654342 0.4435478 0  
-0.4435478 -0.2654342 0  
-0.27373606 -0.34534052 0  
0.34534052 -0.27373606 0  
0.27373606 0.34534052 0  
-0.34534052 0.27373606 0  
-0.05307205 -0.4481981 0  
0.4481981 -0.05307205 0  
0.05307205 0.4481981 0  
-0.4481981 0.05307205 0  
-0.35614902 -0.19390328 0  
0.19390328 -0.35614902 0  
0.35614902 0.19390328 0  
-0.19390328 0.35614902 0  
-0.14022674 -0.012452113 0  
0.14171903 0.011271359 0  
-0.01125192 0.14089845 0  
-0.19556868 -0.06932378 0  
0.070511825 -0.19668652 0  
0.19556868 0.06932378 0  
-0.06932378 0.19556868 0  
-0.24951252 -0.039742906 0  
0.04037078 -0.2503529 0  
0.24951252 0.039742906 0  
-0.039742906 0.24951252 0  
0.44100407 -0.36164257 0  
0.36164257 0.44100407 0  
-0.44100407 0.36164257 0  
-0.36164257 -0.44100407 0  
-0.4451273 -0.36589316 0  
0.36589316 -0.4451273 0  
0.4451273 0.36589316 0  
-0.36589316 0.4451273 0  
0.1121834 -0.30242515 0  
0.30242515 0.1121834 0  
-0.1121834 0.30242515 0  
-0.30242515 -0.1121834 0  
-0.115146436 -0.19087775 0  
0.19190264 -0.11309679 0  
0.11520548 0.19263776 0  
-0.19263776 0.11520548 0  
-0.08287991 -0.37025127 0  
0.37025127 -0.08287991 0  
0.08287991 0.37025127 0  
-0.37025127 0.08287991 0  
0.23791528 -0.24381089 0  
0.24381089 0.23791528 0  
-0.23791528 0.24381089 0  
-0.24381089 -0.23791528 0  
-0.44626984 -0.21174923 0  
0.21174923 -0.44626984 0  
0.44626984 0.21174923 0  
-0.21174923 0.44626984 0  
0.35174853 -0.37705234 0  
0.37705234 0.35174853 0  
-0.35174853 0.37705234 0  
-0.37705234 -0.35174853 0  
-0.048605647 -0.023262763 0  
-0.1551113 -0.21381997 0  
0.21381997 -0.1551113 0  
0.1551113 0.21381997 0  
-0.21381997 0.1551113 0  
-0.29403278 -0.30027482 0  
0.30027482 -0.29403278 0  
0.29403278 0.30027482 0  
-0.30027482 0.29403278 0  
0.12173745 -0.390654 0  
0.390654 0.12173745 0  
-0.12173745 0.390654 0  
-0.390654 -0.12173745 0  
-0.12236246 -0.2979882 0  
0.2979882 -0.12236246 0  
0.12236246 0.2979882 0  
-0.2979882 0.12236246 0  
-0.0945969 -0.046371013 0  
0.035276897 -0.027358124 0  
-0.0076714605 0.051946 0  
-0.30809116 -0.17165439 0  
0.17165439 -0.30809116 0  
0.30809116 0.17165439 0  
-0.17165439 0.30809116 0  
-0.16592422 -0.10879113 0  
0.10700909 -0.1687818 0  
0.16864619 0.10664837 0  
-0.10664837 0.16864619 0  
-0.16784625 -0.38069874 0  
0.38069874 -0.16784625 0  
0.16784625 0.38069874 0  
-0.38069874 0.16784625 0  
-0.4563872 -0.05993889 0  
0.05993889 -0.4563872 0  
0.4563872 0.05993889 0  
-0.05993889 0.4563872 0  
0.31103167 -0.37412483 0  
0.37412483 0.31103167 0  
-0.31103167 0.37412483 0  
-0.37412483 -0.31103167 0  
-0.3909646 -0.012754724 0  
0.012754724 -0.3909646 0  
0.3909646 0.012754724 0  
-0.012754724 0.3909646 0  
0.44915667 -0.21679194 0  
0.21679194 0.44915667 0  
-0.44915667 0.21679194 0  
-0.21679194 -0.44915667 0  
0.045831423 0.12033131 0  
-0.12662303 0.045442794 0  
-0.3107799 -0.37355793 0  
0.37355793 -0.3107799 0  
0.3107799 0.37355793 0  
-0.37355793 0.3107799 0  
0.04152367 0.021693805 0  
-0.08040017 -0.2675595 0  
0.26794365 -0.08044455 0  
0.080500565 0.2680441 0  
-0.2680441 0.080500565 0  
-0.13753757 -0.45578164 0  
0.45578164 -0.13753757 0  
0.13753757 0.45578164 0  
-0.45578164 0.13753757 0  
-0.05507968 -0.12135967 0  
0.14172421 -0.09428923 0  
0.2571752 -0.19664502 0  
[...]
POINT_DATA 2173 
SCALARS T float 
LOOKUP_TABLE default 
1.6003013762455916e-19 
-1.1054482968080546e-19 
1.1033956619093733e-17 
9.970480607388981e-20 
4.007562516069549e-18 
3.3440890828655326e-18 
-9.753697970939381e-18 
1.0607507999362245e-17 
9.970270999232368e-18 
3.2636914609134476e-18 
2.016326278271633e-18 
1.3955870132746475e-18 
-4.7105498863202586e-18 
1.8366141829000154e-17 
-2.4655769781179713e-17 
6.966498726834635e-18 
6.8274761901017165e-18 
-1.371267196803888e-17 
2.3388713931680386e-17 
-3.2057690288005216e-17 
4.1722371597186924e-17 
-1.599779527083749e-17 
-1.2730966422259466e-17 
5.923653502320366e-18 
-4.625390402874245e-18 
6.68531402082064e-18 
-1.0333848794105237e-18 
-3.012608580378753e-17 
4.428294316000093e-17 
-3.386819105117527e-17 
2.3278110305998243e-17 
-4.407015896376576e-18 
-5.0016772179568126e-17 
7.055727848118634e-17 
-8.945262668403975e-17 
-3.066280875696419e-17 
-1.3264604670426881e-17 
-1.302033626633684e-17 
-3.948152431156114e-17 
-5.5152178179805245e-17 
3.366161269151864e-17 
-2.5519974780311675e-17 
-1.4111759668929025e-17 
1.0384217619317807e-17 
1.7860650483693983e-17 
-5.246230009170984e-17 
5.856339796576171e-17 
7.299592527453401e-17 
7.094603885576605e-17 
-1.890059555546522e-17 
-7.717487176215673e-17 
-8.4103493582672e-18 
-8.576617195862746e-17 
4.0845179996950916e-17 
-2.4007618183811123e-17 
3.183208890704406e-17 
5.769229387381905e-17 
-2.8153891577756565e-17 
7.581031263604227e-17 
-9.771916785913114e-17 
-2.2520292696584492e-17 
1.4311347610887918e-16 
2.4065716789534064e-17 
-1.8182863902384035e-16 
3.6509823977639814e-16 
-4.809813210881351e-16 
5.122785800854932e-16 
1.3578904060072329e-17 
1.518312148706518e-16 
-6.533256578238332e-17 
8.906260670842092e-17 
1.0569091313067591e-16 
-1.8019098703637333e-16 
-1.2393584150436835e-16 
2.107925061709298e-16 
1.8450233908808009e-16 
-3.9786091245423217e-16 
-9.333681781525752e-17 
8.16973535419414e-17 
-2.528573306043321e-16 
2.892335545979322e-17 
-5.69715115677812e-17 
8.518637630763738e-17 
-3.7352717027692733e-17 
5.112271854827335e-16 
-2.6043538260776243e-16 
-1.8147206728365804e-16 
-1.9599936150727823e-16 
9.200145910746834e-17 
4.169610158989927e-16 
-1.7456333295279757e-16 
6.883675275589185e-16 
-7.864209675293645e-16 
3.099541777006295e-16 
3.85928860598686e-16 
2.8786596227630613e-16 
1.4729050507166381e-15 
-3.947144968342951e-16 
3.5633504402114657e-16 
4.676988522953297e-16 
-2.261308141119754e-16 
2.371637740893762e-16 
-3.579026881346316e-16 
6.042055276110318e-16 
-6.884277769694016e-16 
7.02640704048937e-16 
2.1350321314559926e-16 
-9.066344185303639e-17 
1.6643438166127308e-16 
-8.701274707108286e-17 
7.937268415472575e-17 
-2.6583799770647977e-16 
-2.1536289702430808e-16 
-2.4158149719999664e-16 
-5.241718470749987e-17 
-7.673053243205299e-17 
-1.0356823983766584e-17 
-1.1088442508031894e-18 
8.794568353858935e-19 
7.249050934658649e-19 
1.5199570589779418e-18 
-1.1704170685804615e-18 
-3.9881768050301965e-19 
4.298801712138605e-18 
3.459946917283512e-19 
1.978670971401666e-18 
3.8791731349083106e-19 
-7.116204603538807e-18 
2.6942347622966497e-19 
-3.008988407261229e-17 
2.115171467106719e-17 
-3.2161694572112298e-18 
2.3668868599603562e-18 
6.861088943826533e-20 
3.3866726087918065e-18 
3.640632487828516e-18 
-8.3809105667205445e-19 
2.017128135919731e-18 
-3.4134533563296856e-19 
4.372799091821252e-19 
-2.3682676240314595e-19 
1.9347789854147435e-19 
-3.3278171736176215e-19 
5.465303956760127e-19 
1.4407781642269143e-18 
5.555898614828184e-18 
-1.1052149764429868e-18 
-1.226323056010182e-18 
4.339690457172579e-18 
-9.469250455024439e-18 
9.748059387774919e-18 
-9.938778935000022e-18 
-1.0308175506998114e-17 
2.2299396949798363e-18 
-6.298941935566255e-18 
-8.51126385507412e-18 
-1.0884413955787468e-17 
1.0795753924833099e-17 
-4.574293794766262e-18 
-4.037088979084788e-18 
6.629038549396403e-6 
-3.043135229763591e-6 
-1.86631094085459e-5 
-9.388278489934062e-5 
0.4016217031367814 
5.9255909928421044e-5 
-8.023048047154431e-6 
0.0001312879784340682 
0.007535384421530184 
4.7963927478473554e-5 
0.0003058481246309564 
-5.7617958603606176e-5 
-2.8891077211813705e-6 
-1.4936541784816428e-5 
-3.215456089884366e-6 
-0.00019030271060410412 
0.107475390258453 
2.203249853363739e-6 
-2.4495521226029834e-5 
-0.0006043104393851286 
0.0017507181208412219 
1.3241512683039948e-5 
-0.00021016327731536222 
0.017709297721614385 
5.132378568684601e-6 
4.617031148840803e-6 
4.537008043018377e-5 
0.0012704633920487907 
0.044184725019813895 
9.954388418891927e-7 
9.871573642093455e-5 
-0.0014717108597588075 
-1.925291500161863e-5 
-2.3211912755058244e-5 
-0.00046745560095521845 
5.307659193922312e-5 
4.897622517749765e-6 
-8.312672945323312e-7 
-2.8066257496169463e-5 
-0.00020744223931729852 
3.642120466092893e-6 
9.982648947687948e-8 
-1.5605940459093743e-5 
0.0002910267490592608 
0.26551603932828105 
-1.2643080395072876e-7 
-7.994870309267549e-7 
0.0007285780631982279 
0.09354673329096101 
-2.500140376463918e-6 
-1.276665861345461e-5 
-0.00015689840696772716 
-2.7903313596195416e-6 
-2.9387541077019923e-7 
-0.00027550692417714813 
0.0001692228278158958 
7.896886958043621e-7 
1.1054640001404433e-7 
-0.00040580073633785717 
0.020081164442919238 
-2.3719584328126657e-6 
-2.542522667462973e-6 
-3.1977383875104414e-6 
0.00013415298694974528 
0.11166198400891582 
0.0009142993026489642 
3.513536771441727e-7 
-0.00015038659523874042 
0.0019751589058854117 
2.1409937516199318e-6 
0.3777786717494312 
2.476543823980178e-5 
-0.00020565487290705466 
2.201039463536098e-5 
-0.00031802190274913346 
-3.420807822574844e-6 
-1.3988623746680597e-8 
-2.6559043481077003e-5 
0.0002031428503010902 
-0.00015944307227051019 
-6.92084724741804e-6 
0.00033361639483276946 
-2.0346745067489308e-7 
0.00012748800473783427 
0.025689110064379798 
9.368675106239696e-6 
-4.4932423192472184e-5 
-0.0009588618872894793 
-2.0895497924870327e-5 
-3.5206448902216865e-6 
-3.546701106815048e-5 
-3.0937842753255086e-5 
1.3104802831364444e-6 
4.627596415906802e-6 
6.87104881213459e-7 
-0.0002807602270747093 
0.014659237520416576 
-2.3533908045515336e-5 
0.001175370916709835 
5.924806256848626e-6 
-9.973837691436683e-6 
-0.00022680476977758832 
-2.988538037062759e-5 
-0.0004639843841339085 
1.21963667974353e-6 
-4.728432667173822e-6 
0.00024870486716435463 
0.006396482320013773 
8.770149939447288e-5 
-4.834301753878773e-5 
5.4618885876573145e-5 
0.053490890550462314 
1.0096795180322204e-6 
0.013671530045682728 
-9.821271175528177e-6 
5.092186060231018e-5 
0.0039688489370082805 
-2.173639734695371e-5 
-4.64471812953841e-6 
1.2338386416456636e-5 
-0.00011628651922522733 
0.25395896029387766 
-1.9954237185879555e-6 
-0.00012693550337232947 
-0.0012614387797512464 
4.1357722516120765e-7 
6.170924622973047e-5 
0.09464124526802523 
-2.9367050653391077e-5 
7.248291007473087e-7 
-0.0001421510465558415 
0.00017726876229560558 
-6.435806509100046e-7 
-3.5625553368710855e-6 
-0.0005500016637544614 
0.001570905045192348 
-5.21544156016016e-6 
-2.9978897772002644e-5 
-0.0003614784917020347 
0.0015188915584127645 
-2.239564495739641e-6 
-2.302330852605197e-5 
-0.00044920924673949803 
0.5850610960956726 
6.275776688722557e-6 
-1.1627832154776443e-6 
-4.740052246065169e-6 
0.00021100476974208337 
0.00012785298369892396 
1.013939347926627e-6 
8.018551993574588e-6 
-2.5908701476987764e-5 
-9.376792149970528e-7 
-5.48629616559237e-6 
5.1361205270637814e-5 
-0.0005745499412334206 
2.4665660851627536e-5 
-3.781414661140022e-6 
-0.00024145494391720102 
-0.0002015776450872382 
1.2912182484586075e-6 
-1.6439980040576455e-7 
-9.295363501457003e-6 
-0.00028920486733159526 
0.00024403327609449582 
-8.383596651950173e-6 
-7.041672508371675e-5 
0.00010464425171635351 
2.3664841176794063e-7 
-4.495338917202817e-6 
-1.3615021635982879e-5 
0.000334952443005468 
0.005915521131607381 
0.0005003656339634642 
9.546645518667309e-5 
0.01303570898841864 
-1.2760147381654224e-5 
-3.2848747122060996e-5 
-0.00028247157248639364 
0.18860761429774806 
-2.0431276140496985e-5 
1.048396419582581e-5 
-0.00015634272155414035 
0.04301036199563483 
2.0534750210236612e-5 
-0.00024264741811415652 
-9.841801045715043e-6 
-2.5669047624987144e-6 
-8.304487155224596e-7 
3.372082911256813e-5 
-0.00021307662116354958 
-4.216392017249704e-5 
-1.0289670159478705e-5 
0.0003189937731426911 
0.06636122319347035 
-5.752910496747714e-6 
-4.514956736761942e-6 
4.159341376727016e-5 
0.0012361443105925322 
0.2121121458912572 
-2.6976124625674044e-6 
-6.414423805009872e-5 
-0.0004573746268746726 
-4.7697977832353555e-5 
-1.0634923522971345e-5 
-4.619602831492566e-5 
0.14971851890744775 
3.861326571897566e-6 
-3.21194997826385e-6 
-1.9494877595017487e-5 
-7.907640565074983e-5 
2.4321718931570143e-5 
9.16877498427496e-6 
-5.665430771372253e-5 
6.671370090364928e-5 
6.1774130820838784e-6 
9.859178666025888e-6 
-8.13925847060379e-6 
1.0369770844495253e-5 
0.0003363843067409704 
0.31326565327097433 
1.2347208666664145e-6 
-9.311208827717576e-6 
8.358340266895943e-5 
0.0038437994865319937 
-2.4186968502259304e-6 
0.00016628569841417522 
0.0011297738608373798 
2.441185321924869e-6 
1.1926647001538145e-5 
1.8090395175658219e-6 
-0.0019289553794197202 
0.017939497668884606 
-8.68669782869998e-6 
-8.90009199985548e-6 
0.0006570936505870997 
-5.247885467926656e-6 
4.869641918363701e-6 
0.00016529311187828347 
0.07338543970610586 
2.2035487028897675e-6 
4.456283074438843e-5 
0.0004903518020097535 
0.36560962524035745 
3.3126889751614983e-6 
-9.91250650405606e-5 
-0.00019246346296673212 
4.97636666153666e-5 
5.486965848887861e-7 
5.57873637146556e-6 
1.996908217567073e-5 
0.00011588052890712613 
4.4331991077899007e-7 
-5.908752052784263e-6 
-0.00015075611351273046 
1.3431560584759746e-7 
-4.269700057549143e-6 
5.263021110885811e-6 
0.00013786200814552073 
-0.0011929684302078249 
2.5968901323435032e-5 
0.0003403788979345274 
1.1924144845363298e-5 
1.4794142057035408e-5 
0.0009643258075802411 
0.016593816866278928 
2.6716092317508105e-6 
-2.624013936574349e-6 
-0.00015103126295660526 
-0.00010184643613614123 
0.00014312765984714565 
5.56826762783204e-7 
4.60822366375235e-5 
-0.0009469568112808682 
0.017361893457439145 
1.4246777100668525e-5 
-6.397318266308271e-6 
-0.0007956338558359776 
-3.8565649515452207e-7 
6.277914387538127e-7 
2.9234373428539845e-5 
-2.3144912524933462e-5 
-0.0004522529951303405 
0.140042734974808 
-7.451656372133247e-6 
0.0001885040311050727 
9.695930934122868e-7 
7.6217924039730995e-6 
2.5778175563798125e-5 
-5.90191491326324e-5 
-5.33005987876301e-6 
7.897519345836174e-6 
-0.00012408694936206032 
-8.093765945692299e-6 
-3.1426293224929643e-6 
5.038404148946394e-5 
-2.4665659310398342e-5 
2.3453013668297577e-5 
5.321402730860819e-6 
-0.0004211328088274651 
0.012993168543642237 
5.437037430139004e-7 
6.559202012981366e-6 
0.0001952432533925549 
0.056698230543803484 
0.0004359034041559665 
7.248556418355686e-5 
1.4377199104699644e-5 
-3.217243332496472e-6 
6.043784995947513e-5 
-0.0019263536672620254 
0.006718798415565819 
0.001121417069889147 
-2.48909183487295e-6 
2.9734122948907945e-5 
0.004076464615339681 
-7.998109095279853e-6 
-1.5454419118060625e-5 
-0.00010949969248121482 
-0.00015833129478708556 
-3.226582949918837e-5 
1.217061668967438e-5 
1.2975998219538087e-5 
0.00023023506417116217 
0.0036261903041326796 
-4.184464885228876e-7 
-2.5453194919829988e-6 
-1.6487225668889641e-6 
-0.0002349406232840249 
-8.806316969640648e-5 
3.5022531527702424e-6 
-3.656890449794001e-5 
-3.90511307295384e-6 
-3.434339811806516e-5 
-1.0669934233471602e-5 
-9.7586688686877e-6 
-3.998778730545299e-5 
-0.00034509928815868395 
-3.0526614369675566e-7 
-6.805412591316918e-6 
0.00018687501828157087 
-0.003626524390570795 
-1.8128429571876401e-6 
-2.262431817450999e-6 
2.1481503975763987e-6 
-1.2819061007886753e-5 
0.007116060347556398 
-9.218639575325201e-7 
0.5383408375626235 
-2.9294888049969304e-6 
0.0006278041715150741 
6.699133193646393e-6 
-9.570016740766796e-5 
0.00010961743008237281 
-6.967151289426923e-7 
3.4280316201528174e-6 
-1.920342991481679e-5 
-0.0006391549014728131 
-5.159434309447106e-7 
1.04546556997684e-5 
-0.00012622336589920827 
0.00017690965875800303 
3.808752746015725e-7 
-4.5433124792445065e-6 
-2.8170901212597156e-5 
-9.9918945827921e-5 
-0.0005323315794511096 
3.0305554085421244e-5 
-0.0002819127350383264 
-1.4718375097650355e-6 
4.706833972483751e-6 
1.470371748912893e-5 
-3.837775593551442e-5 
4.126011019716611e-6 
6.529288210797812e-6 
0.001140820788152617 
9.658534828278866e-6 
-9.829080087700247e-5 
-0.0009182744054141192 
1.5710293986547541e-6 
0.0003326947012973557 
0.06411476125868953 
0.0005464127235530552 
0.138956946433634 
-1.4378543681574e-5 
-1.3200263192078625e-6 
6.83553464372454e-5 
0.004011692025105792 
-1.2707087189088584e-5 
-1.3818788393792542e-5 
0.00015948008610625815 
-0.0012876876882170906 
-0.00018620219429161283 
-3.97226745420337e-6 
1.499774768023928e-5 
-0.0002694047588372478 
0.29791104036831756 
-1.9143938708418806e-5 
0.0006914174427473846 
6.410330470804919e-6 
7.540508928713443e-6 
0.0009908832782147322 
7.416373367712818e-6 
2.765844687625688e-6 
-0.0010808271344110324 
0.4072600391050462 
2.939670351509322e-6 
-0.00028581281888373294 
-0.00039255952913452543 
8.600679392082717e-7 
-1.4895624104404313e-5 
0.0002701062104677556 
0.12749544453737233 
8.040938221974273e-7 
-0.00013362070580298944 
0.04494639180954829 
5.190746893963408e-6 
-0.00032512123577711576 
0.029209836044406506 
-2.860868898372199e-6 
0.0015319997243442214 
4.083155822402218e-6 
-5.701280619087375e-5 
-0.0011571945820671445 
3.50022865639198e-6 
-7.92414713839114e-6 
1.2148123108345776e-5 
0.012185827508406178 
1.8152966408133053e-6 
3.880666000440665e-6 
-0.00041313802561613493 
0.06264687039066884 
-3.22892647555171e-5 
5.3399357445232194e-5 
0.0009790926424881863 
4.77056746937413e-6 
6.552649028215243e-6 
2.1310826783345865e-5 
0.00012148085154870988 
-6.370342209058735e-6 
-4.602999431376016e-7 
-1.6863533769395004e-5 
-0.0003026725001097789 
0.009075788298709286 
9.151520500087632e-6 
1.7932872841040442e-5 
7.05819105906163e-5 
0.016948996303774052 
-0.0005229162933000194 
0.20585758108099678 
3.462294282240573e-5 
-0.00014722007790896687 
3.926903237370827e-5 
2.133322969266065e-6 
1.952666864849397e-6 
2.2890318650423647e-5 
-0.00010309448256404385 
-1.5231930784931853e-6 
2.4869579484320427e-6 
1.891878895627965e-5 
-2.129605628669585e-6 
0.301872842407194 
0.005973103451725906 
6.827243582597759e-5 
0.005773221566731173 
0.00886659272179933 
-4.076367632670504e-5 
1.6767581329730834e-5 
-4.7658574966555375e-5 
-0.00040603220095701315 
-4.040073107896376e-5 
-2.2810494690342096e-5 
2.2945034682568624e-6 
3.395939992463012e-5 
4.4523905703908824e-5 
-6.458093536478554e-5 
-1.0398605851190559e-5 
-0.00014613127755206854 
0.4910128820845328 
2.7412944648008817e-6 
-2.313954158227334e-5 
-0.00010235306119262417 
0.0005823714211878607 
-9.878442075454872e-7 
-1.1520468019060915e-6 
9.0555222801569e-6 
-5.073273066735913e-7 
1.2859030693634984e-5 
-5.3587160764252056e-5 
2.7099294260586437e-5 
0.00030697069853643605 
0.00010699973818230076 
-0.0007855106762595493 
0.4363607678018526 
0.2772209721600924 
0.38014504744648453 
4.3808179765922425e-6 
-5.3826279012388695e-6 
-3.903585258774298e-6 
6.66708223488994e-5 
-0.00010249925722487583 
1.383813721182956e-5 
0.0013107391727851024 
0.002487312312876305 
-0.002720728240208641 
0.010212925698511552 
0.01880863493701988 
0.026969829056668608 
3.2119334362286115e-6 
-1.8406632617648748e-6 
0.492270007526831 
0.3118188974449225 
-1.8619761758437642e-5 
5.4333580150684125e-6 
-0.00029871637127063547 
0.00011451636272930536 
0.03198688208013687 
0.0573126755472653 
4.344816686299871e-6 
-7.73454912917689e-6 
-2.72020784725523e-5 
-1.967983566373939e-5 
-0.001107067409715935 
0.0022220812431189597 
0.0004045926561193184 
-0.00018383722362020068 
-0.00019575809081744276 
1.5183708669725243e-7 
-5.758778369243606e-6 
-3.961060512271503e-7 
3.213552807860975e-6 
-7.61733725069209e-7 
7.797691736848857e-6 
3.605769309305593e-7 
-1.1170414763246578e-5 
1.8860400733817252e-6 
3.271035267631445e-5 
-1.8595316213151892e-5 
0.00025137036745531346 
-0.00023312283092036132 
-8.525037435557689e-5 
-3.023176707312503e-5 
-1.3510375162613624e-5 
3.378017051113646e-5 
-1.689773053995254e-6 
6.865217227326663e-6 
-2.0550313418654614e-5 
3.542461653274838e-5 
0.00018256396692596882 
-3.9668492243334296e-5 
1.0678986172786353e-5 
7.938345891860113e-7 
2.6076970901693937e-6 
5.5409762065249735e-6 
2.376529620381961e-5 
3.2122846115987667e-5 
2.207705291909534e-5 
-0.00014514870864801443 
2.2253070879263013e-6 
1.6609276043040548e-7 
0.0003783412804761753 
-4.2287734387367464e-5 
-3.537250445336847e-5 
3.1676881406868437e-6 
-7.937946326960049e-6 
5.427069318851621e-6 
-3.968731734489259e-5 
7.57913638802824e-5 
3.6631221091100975e-5 
0.00455613901678531 
0.002703078154484703 
0.00030623906529960197 
-7.170638866213112e-6 
-4.920203864324321e-6 
-3.307125154462257e-5 
-4.8372423923393666e-5 
0.00010528676944312905 
0.0001837198289252695 
-1.252058354811113e-5 
4.8979343198647036e-6 
-8.762119780135926e-7 
-4.1300473411540805e-7 
5.944358230886472e-6 
-7.441036006024739e-8 
1.7800203735394873e-5 
-2.6403132797124196e-5 
4.28139383173099e-5 
-0.00012891990874106944 
0.0001823506869744812 
7.213852820613761e-5 
8.963185871872819e-5 
-8.4234399769741e-7 
0.0001083668967415319 
4.392663954401714e-6 
-8.500167570063777e-6 
3.7683499179013097e-6 
8.104271457869506e-6 
-3.87119069345059e-5 
0.0002555571726273379 
1.2389489224846457e-5 
-2.841174374793885e-5 
8.358445304991717e-5 
0.00012186491883918765 
-3.927153581688803e-6 
2.4590231343131816e-5 
2.8324740786002878e-5 
-0.0001701593288462219 
-8.689287438722057e-5 
-5.030796512816634e-5 
-2.6602794471403887e-5 
1.1255768985849014e-6 
4.467949241307989e-6 
0.000795756110027373 
3.9276885034041206e-5 
7.535107735040736e-5 
8.296818325770312e-6 
-2.2708422547087333e-6 
4.055839310634396e-5 
-1.2957402463903829e-5 
3.620342393730949e-5 
-0.00018929964373245713 
3.964962020722929e-5 
3.5643655527061363e-6 
2.5789235466110514e-7 
-7.852069688485337e-8 
2.255585779389524e-5 
-4.343139753316189e-5 
-0.00025444625498621034 
0.00015641867169237687 
-4.2566656012257016e-6 
1.4814183267874532e-6 
0.0001503166876186693 
-4.0696973323506114e-5 
3.90581755329786e-6 
9.85442315153394e-7 
-7.408637880749749e-5 
8.679969805185778e-5 
0.00039066553147009325 
0.0004210712647487336 
-7.643769367870295e-6 
6.653246905240673e-6 
2.8723399554845996e-6 
8.840554191093748e-7 
1.030252241232733e-5 
-9.035218140448241e-6 
-0.0003275332972093469 
0.00022856425812388758 
0.0003254305786269496 
-0.00019682450596662055 
0.0002130980549827665 
0.0015289813839028095 
-0.00044881866765658895 
0.0005128419112624471 
-3.275216137371798e-6 
3.5020091555594555e-6 
-4.513553979024323e-5 
3.407496939408936e-5 
-0.0006113720370313437 
7.552874114494922e-5 
-1.9627499597394535e-5 
-8.04116403240965e-5 
8.454106302168349e-6 
4.350519889397515e-6 
-3.283052481293159e-6 
0.000300915185532896 
-0.0003264352191931378 
-5.65537992267195e-5 
0.0010242176292277702 
7.550955331692265e-5 
-0.00028975875601928216 
-2.7404630049116636e-6 
6.978556875730056e-7 
1.0010807027771425e-6 
-2.1690516299993854e-5 
-2.210545699191401e-6 
-1.3467371740841858e-5 
-0.00020775723150739107 
-5.030477537800467e-5 
-0.00010290977340391224 
0.00010662216041820606 
5.053097004285449e-5 
0.00010512983357669636 
4.588907677046412e-6 
-4.178235175406619e-6 
4.022357412806153e-6 
-5.024163207984853e-6 
1.672964386500029e-6 
-3.117546015820977e-6 
2.3319532261950648e-5 
1.5755119071705706e-5 
0.00015331349578333713 
7.506397361091796e-6 
0.0005060149387140262 
-4.907103173589715e-6 
-4.85213121037742e-6 
-1.2173161353796856e-6 
-1.0751910671074612e-5 
1.2432038923741756e-5 
-2.0239439357942803e-5 
-0.00015905670385976255 
3.0611294438034035e-5 
0.00012597977495942147 
-0.00011304236553563611 