# vtk DataFile Version 3.0 
Unstructured Grid 
ASCII 
DATASET UNSTRUCTURED_GRID
POINTS 2173 float 
-0.5 -0.5 0  
0.5 -0.5 0  
0.5 0.5 0  
-0.5 0.5 0  
-0.475 -0.5 0  
-0.45 -0.5 0  
-0.425 -0.5 0  
-0.4 -0.5 0  
-0.375 -0.5 0  
-0.35 -0.5 0  
-0.325 -0.5 0  
-0.3 -0.5 0  
-0.275 -0.5 0  
-0.25 -0.5 0  
-0.225 -0.5 0  
-0.2 -0.5 0  
-0.175 -0.5 0  
-0.15 -0.5 0  
-0.125 -0.5 0  
-0.1 -0.5 0  
-0.075 -0.5 0  
-0.05 -0.5 0  
-0.025 -0.5 0  
-1.3761214e-12 -0.5 0  
0.025 -0.5 0  
0.05 -0.5 0  
0.075 -0.5 0  
0.1 -0.5 0  
0.125 -0.5 0  
0.15 -0.5 0  
0.175 -0.5 0  
0.2 -0.5 0  
0.225 -0.5 0  
0.25 -0.5 0  
0.275 -0.5 0  
0.3 -0.5 0  
0.325 -0.5 0  
0.35 -0.5 0  
0.375 -0.5 0  
0.4 -0.5 0  
0.425 -0.5 0  
0.45 -0.5 0  
0.475 -0.5 0  
0.5 -0.475 0  
0.5 -0.45 0  
0.5 -0.425 0  
0.5 -0.4 0  
0.5 -0.375 0  
0.5 -0.35 0  
0.5 -0.325 0  
0.5 -0.3 0  
0.5 -0.275 0  
0.5 -0.25 0  
0.5 -0.225 0  
0.5 -0.2 0  
0.5 -0.175 0  
0.5 -0.15 0  
0.5 -0.125 0  
0.5 -0.1 0  
0.5 -0.075 0  
0.5 -0.05 0  
0.5 -0.025 0  
0.5 -1.3761214e-12 0  
0.5 0.025 0  
0.5 0.05 0  
0.5 0.075 0  
0.5 0.1 0  
0.5 0.125 0  
0.5 0.15 0  
0.5 0.175 0  
0.5 0.2 0  
0.5 0.225 0  
0.5 0.25 0  
0.5 0.275 0  
0.5 0.3 0  
0.5 0.325 0  
0.5 0.35 0  
0.5 0.375 0  
0.5 0.4 0  
0.5 0.425 0  
0.5 0.45 0  
0.5 0.475 0  
0.475 0.5 0  
0.45 0.5 0  
0.425 0.5 0  
0.4 0.5 0  
0.375 0.5 0  
0.35 0.5 0  
0.325 0.5 0  
0.3 0.5 0  
0.275 0.5 0  
0.25 0.5 0  
0.225 0.5 0  
0.2 0.5 0  
0.175 0.5 0  
0.15 0.5 0  
0.125 0.5 0  
0.1 0.5 0  
0.075 0.5 0  
0.05 0.5 0  
0.025 0.5 0  
1.3761214e-12 0.5 0  
-0.025 0.5 0  
-0.05 0.5 0  
-0.075 0.5 0  
-0.1 0.5 0  
-0.125 0.5 0  
-0.15 0.5 0  
-0.175 0.5 0  
-0.2 0.5 0  
-0.225 0.5 0  
-0.25 0.5 0  
-0.275 0.5 0  
-0.3 0.5 0  
-0.325 0.5 0  
-0.35 0.5 0  
-0.375 0.5 0  
-0.4 0.5 0  
-0.425 0.5 0  
-0.45 0.5 0  
-0.475 0.5 0  
-0.5 0.475 0  
-0.5 0.45 0  
-0.5 0.425 0  
-0.5 0.4 0  
-0.5 0.375 0  
-0.5 0.35 0  
-0.5 0.325 0  
-0.5 0.3 0  
-0.5 0.275 0  
-0.5 0.25 0  
-0.5 0.225 0  
-0.5 0.2 0  
-0.5 0.175 0  
-0.5 0.15 0  
-0.5 0.125 0  
-0.5 0.1 0  
-0.5 0.075 0  
-0.5 0.05 0  
-0.5 0.025 0  
-0.5 1.3761214e-12 0  
-0.5 -0.025 0  
-0.5 -0.05 0  
-0.5 -0.075 0  
-0.5 -0.1 0  
-0.5 -0.125 0  
-0.5 -0.15 0  
-0.5 -0.175 0  
-0.5 -0.2 0  
-0.5 -0.225 0  
-0.5 -0.25 0  
-0.5 -0.275 0  
-0.5 -0.3 0  
-0.5 -0.325 0  
-0.5 -0.35 0  
-0.5 -0.375 0  
-0.5 -0.4 0  
-0.5 -0.425 0  
-0.5 -0.45 0  
-0.5 -0.475 0  
-0.002115384 -0.00023065208 0  
-0.20714286 -0.20714286 0  
0.20714286 -0.20714286 0  
0.20714286 0.20714286 0  
-0.20714286 0.20714286 0  
-0.28155318 -0.0017231192 0  
0.0017231192 -0.28155318 0  
0.28155318 0.0017231192 0  
-0.0017231192 0.28155318 0  
0.3319978 -0.33098683 0  
0.33098683 0.3319978 0  
-0.3319978 0.33098683 0  
-0.33098683 -0.3319978 0  
-0.14015679 -0.06698606 0  
0.06698606 -0.14015679 0  
0.14015679 0.06698606 0  
-0.06698606 0.14015679 0  
-0.1387125 -0.34573975 0  
0.34573975 -0.1387125 0  
0.1387125 0.34573975 0  
-0.34573975 0.1387125 0  
0.14046866 -0.34602854 0  
0.34602854 0.14046866 0  
-0.14046866 0.34602854 0  
-0.34602854 -0.14046866 0  
-0.05869875 -0.16617337 0  
0.18217777 -0.061504476 0  
0.062312964 0.18362015 0  
-0.18362015 0.062312964 0  
-0.034321424 -0.38563195 0  
0.38563195 -0.034321424 0  
0.034321424 0.38563195 0  
-0.38563195 0.034321424 0  
0.39586002 -0.2428538 0  
0.2428538 0.39586002 0  
-0.39586002 0.2428538 0  
-0.2428538 -0.39586002 0  
0.23688246 -0.38952246 0  
0.38952246 0.23688246 0  
-0.23688246 0.38952246 0  
-0.38952246 -0.23688246 0  
-0.24287231 -0.09948847 0  
0.09948847 -0.24287231 0  
0.24287231 0.09948847 0  
-0.09948847 0.24287231 0  
-0.11560815 -0.24300627 0  
0.24300627 -0.11560815 0  
0.11560815 0.24300627 0  
-0.24300627 0.11560815 0  
-0.40192315 -0.4008276 0  
0.4008276 -0.40192315 0  
0.40192315 0.4008276 0  
-0.4008276 0.40192315 0  
0.06409326 -0.40289903 0  
0.40289903 0.06409326 0  
-0.06409326 0.40289903 0  
-0.40289903 -0.06409326 0  
0.2962961 -0.23982804 0  
0.23982804 0.2962961 0  
-0.2962961 0.23982804 0  
-0.23982804 -0.2962961 0  
-0.28087237 -0.21196799 0  
0.21196799 -0.28087237 0  
0.28087237 0.21196799 0  
-0.21196799 0.28087237 0  
-0.0901279 0.007867504 0  
-0.05002927 -0.07494272 0  
0.0873353 -0.009871756 0  
0.0071518295 0.09216282 0  
-0.14120433 -0.1484696 0  
-0.14581114 0.13960092 0  
0.1458264 -0.14505939 0  
0.13960092 0.14581114 0  
0.41838804 -0.3182741 0  
0.3182741 0.41838804 0  
-0.41838804 0.3182741 0  
-0.3182741 -0.41838804 0  
0.32118136 -0.41712493 0  
0.41712493 0.32118136 0  
-0.32118136 0.41712493 0  
-0.41712493 -0.32118136 0  
-0.19707234 -0.014843048 0  
0.018050108 -0.20183705 0  
0.19707234 0.014843048 0  
-0.014843048 0.19707234 0  
-0.10938372 -0.41847488 0  
0.41847488 -0.10938372 0  
0.10938372 0.41847488 0  
-0.41847488 0.10938372 0  
0.15773043 -0.4267032 0  
0.4267032 0.15773043 0  
-0.15773043 0.4267032 0  
-0.4267032 -0.15773043 0  
-0.3204562 -0.07174808 0  
0.07174808 -0.3204562 0  
0.3204562 0.07174808 0  
-0.07174808 0.3204562 0  
0.02801032 -0.07269879 0  
-0.31817523 0.069836795 0  
-0.069836795 -0.31817523 0  
0.31817523 -0.069836795 0  
0.069836795 0.31817523 0  
0.43106207 -0.17757268 0  
0.17757268 0.43106207 0  
-0.43106207 0.17757268 0  
-0.17757268 -0.43106207 0  
0.0703783 0.071201205 0  
-0.051593844 0.064346604 0  
0.099701226 -0.08333426 0  
0.2863281 -0.17248559 0  
0.17248559 0.2863281 0  
-0.2863281 0.17248559 0  
-0.17248559 -0.2863281 0  
-0.2341888 0.04979648 0  
-0.049194112 -0.231281 0  
0.23358595 -0.04946041 0  
0.04979648 0.2341888 0  
-0.009939441 -0.13691185 0  
-0.26560438 -0.17864102 0  
0.17864102 -0.26560438 0  
0.26560438 0.17864102 0  
-0.17864102 0.26560438 0  
0.013302229 -0.43510666 0  
0.43510666 0.013302229 0  
-0.013302229 0.43510666 0  
-0.43510666 -0.013302229 0  
0.09432827 0.114700764 0  
-0.11539384 0.093188405 0  
-0.3413634 -0.005100272 0  
0.005100272 -0.3413634 0  
0.3413634 0.005100272 0  
-0.005100272 0.3413634 0  
-0.19817708 -0.3508856 0  
0.3508856 -0.19817708 0  
0.19817708 0.3508856 0  
-0.3508856 0.19817708 0  
-0.34100306 -0.27216324 0  
0.27216324 -0.34100306 0  
0.34100306 0.27216324 0  
-0.27216324 0.34100306 0  
-0.20269383 -0.14403741 0  
0.14393912 -0.2028372 0  
0.2026342 0.14393856 0  
-0.14393856 0.2026342 0  
-0.1030633 -0.10524017 0  
-0.4394695 -0.104853734 0  
0.104853734 -0.4394695 0  
0.4394695 0.104853734 0  
-0.104853734 0.4394695 0  
-0.44156647 -0.44156647 0  
0.44156647 -0.44156647 0  
0.44156647 0.44156647 0  
-0.44156647 0.44156647 0  
-0.2683254 -0.44465622 0  
0.44465622 -0.2683254 0  
0.2683254 0.44465622 0  
-0.44465622 0.2683254 0  
0.2654342 -0.4435478 0  
0.4435478 0.2654342 0  
-0.2654342 0.4435478 0  
-0.4435478 -0.2654342 0  
-0.27373606 -0.34534052 0  
0.34534052 -0.27373606 0  
0.27373606 0.34534052 0  
-0.34534052 0.27373606 0  
-0.05307205 -0.4481981 0  
0.4481981 -0.05307205 0  
0.05307205 0.4481981 0  
-0.4481981 0.05307205 0  
-0.35614902 -0.19390328 0  
0.19390328 -0.35614902 0  
0.35614902 0.19390328 0  
-0.19390328 0.35614902 0  
-0.14022674 -0.012452113 0  
0.14171903 0.011271359 0  
-0.01125192 0.14089845 0  
-0.19556868 -0.06932378 0  
0.070511825 -0.19668652 0  
0.19556868 0.06932378 0  
-0.06932378 0.19556868 0  
-0.24951252 -0.039742906 0  
0.04037078 -0.2503529 0  
0.24951252 0.039742906 0  
-0.039742906 0.24951252 0  
0.44100407 -0.36164257 0  
0.36164257 0.44100407 0  
-0.44100407 0.36164257 0  
-0.36164257 -0.44100407 0  
-0.4451273 -0.36589316 0  
0.36589316 -0.4451273 0  
0.4451273 0.36589316 0  
-0.36589316 0.4451273 0  
0.1121834 -0.30242515 0  
0.30242515 0.1121834 0  
-0.1121834 0.30242515 0  
-0.30242515 -0.1121834 0  
-0.115146436 -0.19087775 0  
0.19190264 -0.11309679 0  
0.11520548 0.19263776 0  
-0.19263776 0.11520548 0  
-0.08287991 -0.37025127 0  
0.37025127 -0.08287991 0  
0.08287991 0.37025127 0  
-0.37025127 0.08287991 0  
0.23791528 -0.24381089 0  
0.24381089 0.23791528 0  
-0.23791528 0.24381089 0  
-0.24381089 -0.23791528 0  
-0.44626984 -0.21174923 0  
0.21174923 -0.44626984 0  
0.44626984 0.21174923 0  
-0.21174923 0.44626984 0  
0.35174853 -0.37705234 0  
0.37705234 0.35174853 0  
-0.35174853 0.37705234 0  
-0.37705234 -0.35174853 0  
-0.048605647 -0.023262763 0  
-0.1551113 -0.21381997 0  
0.21381997 -0.1551113 0  
0.1551113 0.21381997 0  
-0.21381997 0.1551113 0  
-0.29403278 -0.30027482 0  
0.30027482 -0.29403278 0  
0.29403278 0.30027482 0  
-0.30027482 0.29403278 0  
0.12173745 -0.390654 0  
0.390654 0.12173745 0  
-0.12173745 0.390654 0  
-0.390654 -0.12173745 0  
-0.12236246 -0.2979882 0  
0.2979882 -0.12236246 0  
0.12236246 0.2979882 0  
-0.2979882 0.12236246 0  
-0.0945969 -0.046371013 0  
0.035276897 -0.027358124 0  
-0.0076714605 0.051946 0  
-0.30809116 -0.17165439 0  
0.17165439 -0.30809116 0  
0.30809116 0.17165439 0  
-0.17165439 0.30809116 0  
-0.16592422 -0.10879113 0  
0.10700909 -0.1687818 0  
0.16864619 0.10664837 0  
-0.10664837 0.16864619 0  
-0.16784625 -0.38069874 0  
0.38069874 -0.16784625 0  
0.16784625 0.38069874 0  
-0.38069874 0.16784625 0  
-0.4563872 -0.05993889 0  
0.05993889 -0.4563872 0  
0.4563872 0.05993889 0  
-0.05993889 0.4563872 0  
0.31103167 -0.37412483 0  
0.37412483 0.31103167 0  
-0.31103167 0.37412483 0  
-0.37412483 -0.31103167 0  
-0.3909646 -0.012754724 0  
0.012754724 -0.3909646 0  
0.3909646 0.012754724 0  
-0.012754724 0.3909646 0  
0.44915667 -0.21679194 0  
0.21679194 0.44915667 0  
-0.44915667 0.21679194 0  
-0.21679194 -0.44915667 0  
0.045831423 0.12033131 0  
-0.12662303 0.045442794 0  
-0.3107799 -0.37355793 0  
0.37355793 -0.3107799 0  
0.3107799 0.37355793 0  
-0.37355793 0.3107799 0  
0.04152367 0.021693805 0  
-0.08040017 -0.2675595 0  
0.26794365 -0.08044455 0  
0.080500565 0.2680441 0  
-0.2680441 0.080500565 0  
-0.13753757 -0.45578164 0  
0.45578164 -0.13753757 0  
0.13753757 0.45578164 0  
-0.45578164 0.13753757 0  
-0.05507968 -0.12135967 0  
0.14172421 -0.09428923 0  
0.2571752 -0.19664502 0  
[...]
POINT_DATA 2173 
SCALARS T float 
LOOKUP_TABLE default 
-7.396507873006047e-19 
-2.770682731353297e-25 
-1.8928553420881911e-19 
-7.477159090585524e-18 
-3.925435344309801e-18 
1.2359151086082248e-18 
-3.5501242161968e-17 
1.1988735896210117e-17 
8.76683882371533e-18 
7.980789562822139e-17 
-7.904480519450282e-17 
3.2995157238156484e-16 
-2.79315929172694e-16 
1.9873608021982343e-16 
-2.705824142592761e-17 
-3.276393439936216e-18 
-2.1053980886426827e-17 
1.9468305945083321e-19 
1.2216810257434354e-17 
2.426400452566657e-18 
-6.267832914254032e-19 
-4.054832673981087e-19 
1.6775757731276783e-19 
-7.192159522041989e-19 
5.352785423670905e-19 
-3.7183107720187456e-19 
1.4120633238219298e-20 
-1.0108462764570046e-21 
-1.9062184473248405e-21 
-4.060734840783819e-21 
-5.558559933914208e-22 
-4.446468464347513e-22 
-1.683770461758484e-22 
-1.275157010425049e-23 
-7.302760030538124e-23 
6.811787907264944e-23 
-4.5854847749960035e-23 
5.920841131366987e-23 
2.0000017972058703e-23 
2.4136669881686945e-24 
-3.1631412124198425e-23 
2.773644679057258e-23 
9.554837925187686e-24 
-6.263098982178384e-24 
-1.3137197030995544e-23 
4.567612663161579e-23 
-4.1546021575245444e-23 
2.2789350002498175e-24 
-1.8577913822363508e-22 
6.508676884111689e-22 
-2.257778031546773e-21 
4.828841794849448e-21 
-6.256908964309685e-21 
6.03116459091477e-21 
1.296355202269789e-21 
-1.0372990609626498e-20 
3.287506761749583e-20 
-6.001294548745594e-20 
6.085009023338484e-20 
-4.3568459398940054e-20 
4.280311619406931e-21 
6.617239705226161e-20 
-1.4082849376701427e-19 
2.4080824000433704e-19 
-4.0166711650678897e-19 
4.0179738599525397e-19 
5.198820102251772e-19 
6.271002498002563e-19 
-1.397534071060188e-19 
-2.8452169309859816e-20 
7.028635473396151e-19 
-7.969806057907493e-19 
2.8485432746053466e-18 
-4.792755255311445e-18 
5.784668739188427e-19 
-2.484299003389994e-18 
-2.8947938971509707e-18 
-8.960325764453934e-19 
-9.429126893263334e-19 
6.944498126965438e-18 
-2.4757203470028543e-18 
-3.097184441653686e-18 
2.440864991029619e-18 
4.478914811786971e-18 
-1.3163012223672768e-17 
8.268357616321998e-18 
1.3669686814043425e-18 
1.2036725289985318e-18 
-3.3101660892253183e-18 
-1.4964353197018168e-17 
4.713547247600817e-17 
-6.064648715233121e-17 
4.342683018371152e-17 
-7.697514894576279e-18 
-1.5629413804972997e-17 
4.995253519158921e-17 
-9.774519027672787e-17 
9.051905443074429e-17 
-5.352721029625526e-17 
3.052056339360973e-17 
1.8640376160272682e-18 
-2.6836019083005004e-17 
8.134360627970292e-17 
-1.7848590789977717e-16 
2.9684820707846385e-16 
-2.056666838086547e-16 
-3.2254585804925406e-16 
1.315668135793494e-18 
-4.05636328752893e-18 
-6.019384477664915e-17 
2.334577182743339e-16 
-3.399037897272063e-16 
5.427712056263682e-16 
-1.0306302688243293e-15 
1.8697844102499156e-17 
-5.376732565888528e-16 
2.5856753868177997e-17 
2.298172093977298e-16 
-5.200054862799123e-17 
-4.548804063576836e-18 
1.1868989310465856e-16 
-1.2440508896053673e-16 
9.958487352493851e-17 
-1.5944894252742124e-17 
1.6390121298281434e-16 
-5.524843590381464e-18 
-9.847765763753918e-17 
-3.5065005665858965e-16 
2.4531651885016374e-16 
-6.33985589407476e-16 
4.147678080861829e-16 
-1.5418757142609408e-16 
-1.6931709091170303e-16 
3.1109979668492007e-16 
-4.052364383298915e-16 
-5.508727102679135e-16 
1.2728566618930831e-15 
-7.628596459254403e-16 
-4.917986222214641e-16 
7.315026103330374e-16 
-7.2209095492408e-17 
1.1792022336816498e-16 
-6.953848326541548e-16 
1.239626960146484e-15 
-2.4409554951890278e-15 
1.8247788142326664e-16 
-1.2881493222177144e-15 
2.5321327999016377e-16 
-2.4039092724518563e-16 
8.558913049340602e-16 
-8.317248570742116e-16 
-9.52526046335886e-16 
-1.9001109236377104e-15 
-4.3702478093643497e-16 
-5.664742590357997e-16 
-2.2101933015239873e-17 
1.5612829954370305e-17 
4.5000952371409305e-17 
1.999246669679016e-17 
4.472775122426114e-18 
7.685333379751067e-7 
0.27497642378778775 
9.062792165169633e-10 
-4.569890419875625e-5 
-0.0007872534351725328 
-0.003948595342738686 
0.004158591378951352 
-7.404795193747096e-8 
-6.511941309057014e-5 
-3.795424098313867e-10 
1.5843149639107177e-8 
0.00019639076443187843 
-0.0001835893710989596 
0.001781455443670086 
1.798583225439339e-5 
-4.815487912341221e-7 
0.000185820932435573 
0.014838883944940913 
-3.2863248255919203e-9 
-9.207652303146336e-5 
0.0020514554309017975 
-1.5471763274386562e-7 
-1.5619224590804881e-6 
0.0002736006249165238 
-0.009596890662322582 
0.16189052423181552 
-2.823471388673021e-8 
4.750286593808084e-5 
-0.0018014836354226906 
-3.2123983794628794e-5 
2.7172989665721718e-8 
1.5747759770027652e-7 
-0.0001813694016753788 
4.254513325497666e-9 
1.1762364049587278e-5 
-0.000149949931945378 
0.0005316140116746584 
1.936881913227396e-10 
2.0228431851407813e-6 
-0.00021971545624333436 
-0.0014256964382311776 
0.004696004602090396 
-6.151230902627022e-6 
3.7956164108081786e-8 
-0.00022167959089107068 
0.6394461325572904 
8.623038686730498e-10 
2.36524866998904e-5 
-0.001386971530960637 
0.0001930761610794605 
1.5360716184306246e-10 
-3.7732445496568523e-6 
-0.000532016504885142 
-1.6397344154458993e-6 
-4.815410159207204e-7 
4.049546066786588e-5 
0.0012283551453278643 
4.900537816419583e-10 
-2.0170297187905502e-5 
-0.0009472665712742843 
0.016491400428005894 
0.005853720526869451 
-6.630953774754053e-10 
-7.253445504930929e-7 
-0.0007265381892704671 
9.801669852834612e-5 
0.002815484237505183 
-6.573383829903413e-7 
2.555193751369796e-5 
0.3751351847102382 
0.0010624644877966108 
6.778923433188005e-9 
5.2400753622012536e-6 
1.2948297423475375e-10 
-6.7674493556049384e-6 
-6.537434334513371e-5 
-1.831885326641213e-5 
-3.147114421042563e-11 
-3.1949907149285682e-6 
-0.0003668280725015782 
-0.0013722147152027409 
-0.0038890561237382854 
0.0038665668067855642 
1.3488661359735272e-8 
8.480395857853128e-5 
-3.2830475081888884e-5 
1.9259366373322553e-8 
2.1609617762632023e-5 
0.000733929435160374 
-1.8099654190846326e-8 
1.2900339260873754e-6 
-2.0450564205902165e-5 
-0.002357204665621839 
-0.003510708163389158 
-6.949749920893318e-6 
3.834071166458813e-7 
-1.9348018044579e-5 
8.768885196883648e-6 
-0.0005252251587592135 
0.025847223555795933 
-1.1913063920382774e-8 
-3.091041344496703e-5 
6.3208694351573934e-9 
8.259393551432354e-6 
0.0004574775362823786 
5.4031399212205026e-5 
-2.0183778091112635e-5 
-8.252360543113118e-6 
-5.68357963392252e-8 
-9.88383301159033e-10 
-8.098202884992094e-6 
0.002148755873879575 
0.17653683486366756 
-0.005715822553676194 
0.1644655519032533 
1.9084557826665778e-8 
1.680830582742142e-5 
0.007361506245677766 
0.01820867236824072 
2.967163051405349e-9 
-1.161789175355209e-5 
-0.0002197967155895804 
-3.150183477891779e-6 
1.452623278052024e-7 
9.616519764526829e-5 
0.0011957327624557792 
1.1523387468678498e-5 
-0.0004956778171412454 
-0.00023782455753855548 
5.1462803048066565e-5 
-2.005141272050754e-9 
3.0871604502894264e-5 
0.0033382475132754806 
-2.8356338784292047e-9 
-4.965545377140604e-5 
0.0016656197593857267 
-0.0013566481575954209 
-9.668224144304078e-11 
-1.0389094404225295e-5 
-6.588026697633842e-5 
0.12489940418888694 
-6.015954317380785e-8 
-8.435108172491037e-7 
0.0005856443833580078 
0.05845192230556279 
-0.0010515120475564882 
-2.3365091143228094e-8 
-3.203074773130488e-7 
-0.00022114106613416474 
2.5104436555862097e-5 
5.61080446951011e-11 
1.347027546897709e-6 
-0.00029156431026942155 
0.00018230652466873223 
-7.117338392429611e-10 
3.7934510538272547e-6 
0.00018169446083191255 
-3.213935188618748e-12 
-9.377511949336973e-7 
1.2634740732140996e-5 
-0.0013391224578628775 
0.0017150481468088637 
3.322351552751874e-10 
-1.7266603643024035e-5 
-6.937939758138329e-5 
-2.0610691479481584e-7 
2.533641734048552e-8 
3.5957363907967096e-5 
0.0007790294543109492 
0.0023812798260895106 
-3.4438335411084536e-9 
-3.5072350555482877e-6 
-0.0011302719324370954 
-0.006103245115597372 
1.019407994532346e-6 
0.00010179912727780272 
0.0025010900228214852 
1.0256337048677078e-5 
1.7239913541731777e-7 
0.00025704737956263506 
0.009165387204146018 
0.0004815461733865559 
2.3070749877652382e-8 
-7.0463484848906466e-6 
2.419116614710992e-10 
9.497618166832356e-6 
-9.079250693356474e-5 
8.636169773031024e-5 
-0.00023968880539160795 
9.769374768932655e-12 
3.0985052566984677e-6 
-0.00023182350288295672 
-7.992365515767532e-7 
-2.8649088318225595e-6 
-0.00050533518812137 
-0.0005267684619937914 
0.7460289989214958 
1.619509817008421e-9 
9.490559627355738e-6 
-0.0005674480365824926 
0.0008989380113176399 
1.263314613376558e-9 
-6.609658845639708e-5 
0.0016364801228745448 
1.162381835953002e-10 
1.2285908604551052e-5 
0.0005731861025128918 
0.05547308751438104 
-9.441124292048042e-5 
-5.153624604847012e-12 
5.042384319909906e-7 
8.03220593306866e-5 
2.7919087170416033e-10 
5.591593433515685e-6 
-0.000591545692847151 
-7.17942086660865e-5 
0.0001483341974185982 
0.8195426929665777 
9.7389096630995e-10 
4.7115606894748695e-5 
-0.0020417329036127164 
0.0010257627886819294 
-1.4008125946846547e-10 
-1.4658006377259233e-5 
-0.0005399216784203877 
-2.08136114254329e-7 
-2.446188693391507e-7 
4.3934281906826845e-5 
-0.00024071429692795358 
0.1572992033802712 
2.339925399692131e-9 
-0.00012723303655823773 
0.0019151642801805327 
0.0016926243537548288 
-1.8814610778878761e-7 
-0.00011736732751454594 
0.0014879102315836252 
-1.4932927821242113e-8 
-6.509339358167918e-6 
-0.0007581787220224698 
0.06509005223800866 
6.152914312266056e-8 
6.801117985766578e-7 
-0.0006241982503601139 
0.0010196923114320442 
3.5983778807706893e-9 
3.6445150477073806e-6 
2.255221346750102e-5 
0.0006505102916063236 
-3.4106443666379056e-7 
-2.934861604818231e-7 
-2.8582534665068294e-5 
5.95477826248101e-11 
2.8995593131528414e-6 
-0.0004980380520143092 
-0.0013013489021507193 
0.0015477787323676525 
-2.1516738055159755e-5 
-3.1393312339018944e-7 
-0.00022661923722239988 
-4.540610020010455e-9 
-2.301458009421862e-5 
0.0003773130506856177 
1.2670514818609644e-5 
2.7119239387602954e-5 
-0.0015399990740930897 
-0.0001113821366421407 
9.761108425295223e-10 
-4.216899239685307e-6 
-0.0006619134499591648 
9.711952722851618e-7 
0.22319759658186658 
1.3556413748390339e-8 
-0.00013713295108775588 
0.00255916661453586 
-9.208593029936209e-6 
9.842436405280392e-9 
1.2371520306069292e-5 
-0.00023510162899274728 
0.03460163011950731 
-2.6369960232555117e-8 
1.2578041962899353e-9 
-3.9180606332451554e-5 
-0.0007929625194360747 
0.22970694835800665 
-1.3305340291117298e-7 
5.171350504241522e-5 
-0.0002082354292949085 
8.251201666070902e-10 
9.84534896117983e-6 
-0.000720155482553482 
8.238019106635195e-10 
2.0607320135059705e-5 
-0.00012540251577330218 
2.2056378175147383e-5 
3.018844720431454e-11 
1.0637678554423592e-6 
-0.00028102117132508986 
0.00018703766514474883 
-4.509036607177692e-6 
0.00016035190338426733 
0.004393581682392416 
1.604754342854961e-7 
-6.076402414935806e-7 
-0.00024230257581184727 
0.00017400207715326498 
1.7973708552204695e-7 
0.0009178896488691968 
0.044537122050908415 
7.32745673636047e-8 
4.293867578136495e-5 
0.006521731463426688 
0.0015509151520720433 
0.020520583891757305 
3.280869186812691e-8 
-0.00010799720166619457 
-0.0014105846263577615 
-3.2778771848685614e-9 
-4.772238974755303e-7 
0.00011175089883400319 
2.60031957408294e-6 
0.001040603533255232 
-7.313257747278961e-8 
-1.2346611790970367e-7 
-0.0003025943141594256 
-0.009508854310208441 
0.2992232232161003 
9.256027913114097e-10 
3.6941589186852983e-6 
-0.0005864204390498965 
5.565103079994668e-5 
0.001973292596861407 
0.0021223964651577165 
1.6689542488064767e-8 
-4.731937787135205e-5 
-3.135691952553068e-7 
3.56124671582832e-8 
4.155693178855696e-5 
0.0003957649062037005 
-9.756491330279926e-6 
-6.159758513442836e-8 
-1.8421802270149482e-5 
0.004745703574658385 
0.002285170622615821 
-3.8610544172622184e-7 
-1.5496219876571961e-6 
-0.000551669251142144 
0.5106694262133563 
-0.0008477716034798578 
-1.7965089105633e-9 
-8.822792845477733e-6 
-7.663137344304943e-11 
-3.016534428905443e-7 
0.0003127267217462944 
-7.63694376741418e-5 
0.0014894281802432907 
-2.785370293435062e-10 
2.0266762008135223e-6 
0.0013587010603694056 
-6.069588430847363e-7 
5.404173977815051e-8 
5.826930633946746e-6 
0.00013435590765976967 
0.0019839672406650345 
1.1853247752414065e-9 
-3.934904613046235e-7 
-5.0585623672007895e-5 
-1.1308112493524766e-11 
7.274342807042362e-6 
9.498844842014676e-5 
3.109506061798217e-5 
-1.6293437732818442e-11 
2.9042950330657907e-6 
-2.6773588218950805e-5 
3.927107880944066e-5 
0.004314615756890224 
0.028223385962202627 
-1.0815479074745278e-8 
-0.00024473335069158066 
-0.004735645320926823 
1.9898895350950509e-7 
0.00020585788828986505 
2.248764731640325e-6 
3.267014978834066e-5 
0.006646349329606031 
4.811211310833949e-6 
-1.2165261137054685e-7 
-0.00012556090459009292 
0.0008707177165872284 
8.577550563347794e-6 
1.675670166518411e-8 
1.8562835998414476e-5 
1.5216556001680323e-7 
0.05607975131983634 
6.478014191057181e-10 
-3.2178479584263784e-5 
-0.00014810104465892907 
-2.3535588270379082e-8 
-4.8301953570308934e-5 
-0.00039688086945354064 
3.0288118654009925e-5 
-4.656136681577967e-5 
0.018288910968969764 
6.764449630180456e-7 
2.5049938808818926e-6 
0.0013063851924765574 
-9.550991684740965e-7 
3.536048872738235e-8 
5.9381241064598194e-5 
0.0011483036589773846 
3.076917133591241e-9 
-0.00010710281815658808 
0.0032505147485821714 
0.5481503237704796 
2.247311053933111e-6 
0.00019177086669173727 
1.6640852400413102e-10 
-2.9829145048269955e-6 
0.0004968109517724382 
0.0006004035828340464 
0.003136143585031184 
0.020422818929644794 
-2.267628273458848e-9 
-1.4555084957652677e-5 
0.00031551533179951965 
-3.4298434402166605e-10 
-3.0348924297902368e-6 
-6.613975142609745e-5 
0.48655954238776306 
2.491053080252466e-10 
3.672795177487642e-5 
-0.0013028867017471223 
-6.484738226830893e-10 
-1.3561900064312303e-5 
8.662774532779006e-7 
0.001421046656290741 
5.814216969833084e-6 
-6.316092610085555e-9 
-4.80191365201855e-5 
0.0014669444265875944 
0.03544309046515463 
-1.0251820507660427e-9 
-1.1337418057585149e-5 
0.0013720991748734602 
0.03186808249303818 
6.01915739556152e-10 
4.753595068594231e-6 
0.0004777728023307253 
-6.124311077073889e-6 
0.00013653171170521924 
1.1624410771588354e-9 
8.837796024320978e-7 
-0.00013410352043812126 
0.0003107510421345268 
3.64618256867593e-6 
-6.3595762989845604e-12 
4.396486869413484e-6 
3.978106498778205e-6 
0.01660625152916342 
5.0341394644971623e-8 
1.9898286224502732e-6 
0.000987305080228794 
-0.00038679837173765324 
-1.0365082255295413e-8 
0.00010593375779016188 
-9.300542984593415e-5 
0.0002235650346250369 
2.3776745517033487e-5 
-2.622698255070828e-9 
-4.26512999989829e-5 
0.0008899890638473022 
0.01777610135318674 
-0.00048558540180822365 
5.108523049151645e-10 
3.5869567128015445e-6 
-0.0014989525785540634 
2.999356368174627e-9 
1.6446786406917785e-6 
0.00040577117996925144 
0.10161285878081062 
-3.879960922865799e-6 
-7.83303417364153e-8 
-7.580240171675722e-5 
-0.00010470947540508385 
0.7128904918134421 
0.8661529074388501 
0.755838284380105 
1.0936772415025033e-9 
-2.39318095509319e-9 
-2.201781002597435e-10 
-7.806588284201922e-6 
-3.6567127015792216e-5 
1.6153784552406056e-5 
0.0001774945721851948 
0.0010019394163766325 
0.00023145791725541343 
0.10052953466654543 
0.09988419586152615 
0.21005764321792733 
-3.766543513934019e-8 
2.773580627128215e-8 
2.6251267115809213e-9 
-8.66863113016012e-5 
5.553195178211687e-6 
4.814544192636431e-5 
0.0006417514006533771 
-0.0016773718727603217 
0.0030438385359918487 
0.49213354315075836 
0.6108354176918359 
0.0009833074383662418 
-0.0005355760008672885 
-4.402633308636062e-9 
3.3089479381410023e-9 
2.6167588994829026e-6 
-1.556943499135583e-5 
0.0019562691053143077 
-0.001319920830705935 
0.310205791592692 
0.3452807917422648 
-1.118218101785677e-8 
1.4256440784831852e-8 
-5.775455609420631e-5 
-1.8408676900342694e-5 
1.2434137478246955e-5 
-2.106651830054397e-5 
-1.0598204940480325e-6 
0.03662134846286023 
0.08198742629268144 
0.02652308386651743 
0.17114693455339192 
0.2042862128507557 
-0.00032618452356794717 
-0.00015533168052300555 
0.0002230754373400503 
2.1200334446518687e-10 
2.8530243262188803e-9 
-4.458794958391747e-9 
-3.626062561853115e-7 
1.938334807358603e-5 
-2.4789266995789433e-5 
-0.00026518740259131836 
-0.00027215192904548246 
0.0006271965245906438 
4.285543587451737e-5 
-9.176607193554976e-6 
-1.6859422932093448e-11 
-1.0255561573810143e-12 
6.317910615829292e-8 
4.490024339298479e-7 
0.00022189259093091592 
-0.0001544178051118695 
-5.18918131637646e-6 
8.867898865498482e-6 
3.7725286141771255e-11 
-2.4049521689297846e-11 
-7.126833011732812e-6 
5.131004859827634e-6 
-0.0001563501801890626 
0.00011807712582636848 
-0.005262169548327607 
0.0013466115561834458 
0.002354735447873131 
0.012032288328617238 
0.0025402336825028553 
0.0010405963683811485 
4.5678064491798567e-8 
4.0270482265888384e-8 
-8.581043472385699e-8 
0.00024155358928570363 
2.650870251771145e-5 
-0.00017826706315132035 
1.6626941821304026e-9 
-4.981163277949243e-10 
-8.832749362145858e-10 
1.8257306964657308e-5 
-1.7886073420628194e-5 
-7.216193087609082e-6 
-0.0002644408675151018 
1.5922734564992096e-5 
9.6561802036592e-5 
-0.0001139623038184105 
-5.928702794269797e-5 
0.00015629512371941704 
-3.2729961884542496e-11 
-1.1832684049868919e-11 
2.3532510320076413e-11 
-5.299352315618045e-7 
-1.5392485507329966e-6 
2.0369983180881594e-6 
0.00048765224169288737 
-0.00011117520320256096 
-0.00019991096869643814 
0.0008147010611025537 
-0.00041136803246483335 
0.0005159456211046371 
0.0001135600873404584 
-2.5101835090026673e-9 
-2.724125391328646e-5 
0.00020209851092204174 
-5.698464192804993e-12 
-1.2766092042222559e-6 
0.0001116907583862545 
0.0003035229793497963 
9.177385842431097e-11 
5.985030525949233e-11 
6.616967805504066e-7 
3.2281450977776446e-7 
-0.00015362046496332005 
-0.00011668519387578339 
-0.0004769277329270714 
-0.0005089476007594167 
0.0014333670442909462 
-0.00074209996818251 
5.51769388682106e-5 
0.0003851503504574265 
0.0001539981433689468 
-1.9902356952791614e-11 
4.561872988626875e-11 
1.9403106149038295e-6 
-3.796606356505469e-6 
7.921776394036631e-5 
-7.405749895644269e-5 
6.698686634519641e-5 
3.149940242530127e-6 
-4.982775954498359e-11 
-3.4667197140298174e-11 
1.0491943699002555e-5 
-9.79231343004641e-6 
7.759927592599745e-5 
-0.00016805060481127435 
-0.0003220799099538657 
-0.0022271748556167924 
0.008652158576785975 
0.0007420413355063504 
-3.305038090984354e-8 
2.341787744769726e-9 
5.385816525555432e-5 
1.6582848253054465e-5 
-0.0013752452566786401 
-0.00034384467142808896 
0.0021290705655061886 
-4.522942273822938e-11 
1.6754905831038724e-10 
2.0026760976404685e-11 
-4.344889515886195e-6 
5.930501009205436e-6 
2.1114565393271e-6 
0.00011669690365722614 
-0.0006199215795869681 
0.000387976525313427 
-3.060666364226793e-5 
4.207331092610507e-5 
1.9881964241843202e-5 
-0.00018047972694050957 
1.1617685812540193e-8 
-2.6607920345923856e-9 
3.416557926298522e-5 
1.7894446386424056e-5 
-0.0004008341756776622 
-0.000997351773634598 
4.350786718674609e-8 
9.545881974104799e-8 
-8.098161982886433e-9 
-1.0040864771343845e-6 
8.127807492711693e-7 
-2.4925619116311636e-7 
-0.0005288260083271313 
0.0003588591441513199 
0.00018365423302989223 
-0.0011396888443579148 
0.0008027593310243333 
0.0021877773584257736 
1.3037674256127794e-10 
-5.626828294604634e-10 
2.799852900426644e-10 
4.401948507619638e-6 
-9.085336047776818e-6 
-8.583381640588323e-7 
0.0001253660427721097 
0.0005789014962035654 
-0.00039216852074088946 
0.00026960759667534666 
-2.862503896479179e-7 
0.0002673639490227997 
-0.00040929869112568484 
0.0011767102007514759 
3.192093128571409e-12 
-1.8244598701448395e-10 
-5.8426895298255314e-6 
2.590113188237767e-6 
-0.0001248480933188053 
0.0007310575624415336 
0.0016795671907907025 
0.008023094132285821 
0.015449759989748412 
0.003903878945799665 
-9.843760940608513e-10 
2.6370553000201114e-10 
-2.147165287313642e-6 