# vtk DataFile Version 3.0 
Unstructured Grid 
ASCII 
DATASET UNSTRUCTURED_GRID
POINTS 2173 float 
-0.5 -0.5 0  
0.5 -0.5 0  
0.5 0.5 0  
-0.5 0.5 0  
-0.475 -0.5 0  
-0.45 -0.5 0  
-0.425 -0.5 0  
-0.4 -0.5 0  
-0.375 -0.5 0  
-0.35 -0.5 0  
-0.325 -0.5 0  
-0.3 -0.5 0  
-0.275 -0.5 0  
-0.25 -0.5 0  
-0.225 -0.5 0  
-0.2 -0.5 0  
-0.175 -0.5 0  
-0.15 -0.5 0  
-0.125 -0.5 0  
-0.1 -0.5 0  
-0.075 -0.5 0  
-0.05 -0.5 0  
-0.025 -0.5 0  
-1.3761214e-12 -0.5 0  
0.025 -0.5 0  
0.05 -0.5 0  
0.075 -0.5 0  
0.1 -0.5 0  
0.125 -0.5 0  
0.15 -0.5 0  
0.175 -0.5 0  
0.2 -0.5 0  
0.225 -0.5 0  
0.25 -0.5 0  
0.275 -0.5 0  
0.3 -0.5 0  
0.325 -0.5 0  
0.35 -0.5 0  
0.375 -0.5 0  
0.4 -0.5 0  
0.425 -0.5 0  
0.45 -0.5 0  
0.475 -0.5 0  
0.5 -0.475 0  
0.5 -0.45 0  
0.5 -0.425 0  
0.5 -0.4 0  
0.5 -0.375 0  
0.5 -0.35 0  
0.5 -0.325 0  
0.5 -0.3 0  
0.5 -0.275 0  
0.5 -0.25 0  
0.5 -0.225 0  
0.5 -0.2 0  
0.5 -0.175 0  
0.5 -0.15 0  
0.5 -0.125 0  
0.5 -0.1 0  
0.5 -0.075 0  
0.5 -0.05 0  
0.5 -0.025 0  
0.5 -1.3761214e-12 0  
0.5 0.025 0  
0.5 0.05 0  
0.5 0.075 0  
0.5 0.1 0  
0.5 0.125 0  
0.5 0.15 0  
0.5 0.175 0  
0.5 0.2 0  
0.5 0.225 0  
0.5 0.25 0  
0.5 0.275 0  
0.5 0.3 0  
0.5 0.325 0  
0.5 0.35 0  
0.5 0.375 0  
0.5 0.4 0  
0.5 0.425 0  
0.5 0.45 0  
0.5 0.475 0  
0.475 0.5 0  
0.45 0.5 0  
0.425 0.5 0  
0.4 0.5 0  
0.375 0.5 0  
0.35 0.5 0  
0.325 0.5 0  
0.3 0.5 0  
0.275 0.5 0  
0.25 0.5 0  
0.225 0.5 0  
0.2 0.5 0  
0.175 0.5 0  
0.15 0.5 0  
0.125 0.5 0  
0.1 0.5 0  
0.075 0.5 0  
0.05 0.5 0  
0.025 0.5 0  
1.3761214e-12 0.5 0  
-0.025 0.5 0  
-0.05 0.5 0  
-0.075 0.5 0  
-0.1 0.5 0  
-0.125 0.5 0  
-0.15 0.5 0  
-0.175 0.5 0  
-0.2 0.5 0  
-0.225 0.5 0  
-0.25 0.5 0  
-0.275 0.5 0  
-0.3 0.5 0  
-0.325 0.5 0  
-0.35 0.5 0  
-0.375 0.5 0  
-0.4 0.5 0  
-0.425 0.5 0  
-0.45 0.5 0  
-0.475 0.5 0  
-0.5 0.475 0  
-0.5 0.45 0  
-0.5 0.425 0  
-0.5 0.4 0  
-0.5 0.375 0  
-0.5 0.35 0  
-0.5 0.325 0  
-0.5 0.3 0  
-0.5 0.275 0  
-0.5 0.25 0  
-0.5 0.225 0  
-0.5 0.2 0  
-0.5 0.175 0  
-0.5 0.15 0  
-0.5 0.125 0  
-0.5 0.1 0  
-0.5 0.075 0  
-0.5 0.05 0  
-0.5 0.025 0  
-0.5 1.3761214e-12 0  
-0.5 -0.025 0  
-0.5 -0.05 0  
-0.5 -0.075 0  
-0.5 -0.1 0  
-0.5 -0.125 0  
-0.5 -0.15 0  
-0.5 -0.175 0  
-0.5 -0.2 0  
-0.5 -0.225 0  
-0.5 -0.25 0  
-0.5 -0.275 0  
-0.5 -0.3 0  
-0.5 -0.325 0  
-0.5 -0.35 0  
-0.5 -0.375 0  
-0.5 -0.4 0  
-0.5 -0.425 0  
-0.5 -0.45 0  
-0.5 -0.475 0  
-0.002115384 -0.00023065208 0  
-0.20714286 -0.20714286 0  
0.20714286 -0.20714286 0  
0.20714286 0.20714286 0  
-0.20714286 0.20714286 0  
-0.28155318 -0.0017231192 0  
0.0017231192 -0.28155318 0  
0.28155318 0.0017231192 0  
-0.0017231192 0.28155318 0  
0.3319978 -0.33098683 0  
0.33098683 0.3319978 0  
-0.3319978 0.33098683 0  
-0.33098683 -0.3319978 0  
-0.14015679 -0.06698606 0  
0.06698606 -0.14015679 0  
0.14015679 0.06698606 0  
-0.06698606 0.14015679 0  
-0.1387125 -0.34573975 0  
0.34573975 -0.1387125 0  
0.1387125 0.34573975 0  
-0.34573975 0.1387125 0  
0.14046866 -0.34602854 0  
0.34602854 0.14046866 0  
-0.14046866 0.34602854 0  
-0.34602854 -0.14046866 0  
-0.05869875 -0.16617337 0  
0.18217777 -0.061504476 0  
0.062312964 0.18362015 0  
-0.18362015 0.062312964 0  
-0.034321424 -0.38563195 0  
0.38563195 -0.034321424 0  
0.034321424 0.38563195 0  
-0.38563195 0.034321424 0  
0.39586002 -0.2428538 0  
0.2428538 0.39586002 0  
-0.39586002 0.2428538 0  
-0.2428538 -0.39586002 0  
0.23688246 -0.38952246 0  
0.38952246 0.23688246 0  
-0.23688246 0.38952246 0  
-0.38952246 -0.23688246 0  
-0.24287231 -0.09948847 0  
0.09948847 -0.24287231 0  
0.24287231 0.09948847 0  
-0.09948847 0.24287231 0  
-0.11560815 -0.24300627 0  
0.24300627 -0.11560815 0  
0.11560815 0.24300627 0  
-0.24300627 0.11560815 0  
-0.40192315 -0.4008276 0  
0.4008276 -0.40192315 0  
0.40192315 0.4008276 0  
-0.4008276 0.40192315 0  
0.06409326 -0.40289903 0  
0.40289903 0.06409326 0  
-0.06409326 0.40289903 0  
-0.40289903 -0.06409326 0  
0.2962961 -0.23982804 0  
0.23982804 0.2962961 0  
-0.2962961 0.23982804 0  
-0.23982804 -0.2962961 0  
-0.28087237 -0.21196799 0  
0.21196799 -0.28087237 0  
0.28087237 0.21196799 0  
-0.21196799 0.28087237 0  
-0.0901279 0.007867504 0  
-0.05002927 -0.07494272 0  
0.0873353 -0.009871756 0  
0.0071518295 0.09216282 0  
-0.14120433 -0.1484696 0  
-0.14581114 0.13960092 0  
0.1458264 -0.14505939 0  
0.13960092 0.14581114 0  
0.41838804 -0.3182741 0  
0.3182741 0.41838804 0  
-0.41838804 0.3182741 0  
-0.3182741 -0.41838804 0  
0.32118136 -0.41712493 0  
0.41712493 0.32118136 0  
-0.32118136 0.41712493 0  
-0.41712493 -0.32118136 0  
-0.19707234 -0.014843048 0  
0.018050108 -0.20183705 0  
0.19707234 0.014843048 0  
-0.014843048 0.19707234 0  
-0.10938372 -0.41847488 0  
0.41847488 -0.10938372 0  
0.10938372 0.41847488 0  
-0.41847488 0.10938372 0  
0.15773043 -0.4267032 0  
0.4267032 0.15773043 0  
-0.15773043 0.4267032 0  
-0.4267032 -0.15773043 0  
-0.3204562 -0.07174808 0  
0.07174808 -0.3204562 0  
0.3204562 0.07174808 0  
-0.07174808 0.3204562 0  
0.02801032 -0.07269879 0  
-0.31817523 0.069836795 0  
-0.069836795 -0.31817523 0  
0.31817523 -0.069836795 0  
0.069836795 0.31817523 0  
0.43106207 -0.17757268 0  
0.17757268 0.43106207 0  
-0.43106207 0.17757268 0  
-0.17757268 -0.43106207 0  
0.0703783 0.071201205 0  
-0.051593844 0.064346604 0  
0.099701226 -0.08333426 0  
0.2863281 -0.17248559 0  
0.17248559 0.2863281 0  
-0.2863281 0.17248559 0  
-0.17248559 -0.2863281 0  
-0.2341888 0.04979648 0  
-0.049194112 -0.231281 0  
0.23358595 -0.04946041 0  
0.04979648 0.2341888 0  
-0.009939441 -0.13691185 0  
-0.26560438 -0.17864102 0  
0.17864102 -0.26560438 0  
0.26560438 0.17864102 0  
-0.17864102 0.26560438 0  
0.013302229 -0.43510666 0  
0.43510666 0.013302229 0  
-0.013302229 0.43510666 0  
-0.43510666 -0.013302229 0  
0.09432827 0.114700764 0  
-0.11539384 0.093188405 0  
-0.3413634 -0.005100272 0  
0.005100272 -0.3413634 0  
0.3413634 0.005100272 0  
-0.005100272 0.3413634 0  
-0.19817708 -0.3508856 0  
0.3508856 -0.19817708 0  
0.19817708 0.3508856 0  
-0.3508856 0.19817708 0  
-0.34100306 -0.27216324 0  
0.27216324 -0.34100306 0  
0.34100306 0.27216324 0  
-0.27216324 0.34100306 0  
-0.20269383 -0.14403741 0  
0.14393912 -0.2028372 0  
0.2026342 0.14393856 0  
-0.14393856 0.2026342 0  
-0.1030633 -0.10524017 0  
-0.4394695 -0.104853734 0  
0.104853734 -0.4394695 0  
0.4394695 0.104853734 0  
-0.104853734 0.4394695 0  
-0.44156647 -0.44156647 0  
0.44156647 -0.44156647 0  
0.44156647 0.44156647 0  
-0.44156647 0.44156647 0  
-0.2683254 -0.44465622 0  
0.44465622 -0.2683254 0  
0.2683254 0.44465622 0  
-0.44465622 0.2683254 0  
0.2654342 -0.4435478 0  
0.4435478 0.2654342 0  
-0.2654342 0.4435478 0  
-0.4435478 -0.2654342 0  
-0.27373606 -0.34534052 0  
0.34534052 -0.27373606 0  
0.27373606 0.34534052 0  
-0.34534052 0.27373606 0  
-0.05307205 -0.4481981 0  
0.4481981 -0.05307205 0  
0.05307205 0.4481981 0  
-0.4481981 0.05307205 0  
-0.35614902 -0.19390328 0  
0.19390328 -0.35614902 0  
0.35614902 0.19390328 0  
-0.19390328 0.35614902 0  
-0.14022674 -0.012452113 0  
0.14171903 0.011271359 0  
-0.01125192 0.14089845 0  
-0.19556868 -0.06932378 0  
0.070511825 -0.19668652 0  
0.19556868 0.06932378 0  
-0.06932378 0.19556868 0  
-0.24951252 -0.039742906 0  
0.04037078 -0.2503529 0  
0.24951252 0.039742906 0  
-0.039742906 0.24951252 0  
0.44100407 -0.36164257 0  
0.36164257 0.44100407 0  
-0.44100407 0.36164257 0  
-0.36164257 -0.44100407 0  
-0.4451273 -0.36589316 0  
0.36589316 -0.4451273 0  
0.4451273 0.36589316 0  
-0.36589316 0.4451273 0  
0.1121834 -0.30242515 0  
0.30242515 0.1121834 0  
-0.1121834 0.30242515 0  
-0.30242515 -0.1121834 0  
-0.115146436 -0.19087775 0  
0.19190264 -0.11309679 0  
0.11520548 0.19263776 0  
-0.19263776 0.11520548 0  
-0.08287991 -0.37025127 0  
0.37025127 -0.08287991 0  
0.08287991 0.37025127 0  
-0.37025127 0.08287991 0  
0.23791528 -0.24381089 0  
0.24381089 0.23791528 0  
-0.23791528 0.24381089 0  
-0.24381089 -0.23791528 0  
-0.44626984 -0.21174923 0  
0.21174923 -0.44626984 0  
0.44626984 0.21174923 0  
-0.21174923 0.44626984 0  
0.35174853 -0.37705234 0  
0.37705234 0.35174853 0  
-0.35174853 0.37705234 0  
-0.37705234 -0.35174853 0  
-0.048605647 -0.023262763 0  
-0.1551113 -0.21381997 0  
0.21381997 -0.1551113 0  
0.1551113 0.21381997 0  
-0.21381997 0.1551113 0  
-0.29403278 -0.30027482 0  
0.30027482 -0.29403278 0  
0.29403278 0.30027482 0  
-0.30027482 0.29403278 0  
0.12173745 -0.390654 0  
0.390654 0.12173745 0  
-0.12173745 0.390654 0  
-0.390654 -0.12173745 0  
-0.12236246 -0.2979882 0  
0.2979882 -0.12236246 0  
0.12236246 0.2979882 0  
-0.2979882 0.12236246 0  
-0.0945969 -0.046371013 0  
0.035276897 -0.027358124 0  
-0.0076714605 0.051946 0  
-0.30809116 -0.17165439 0  
0.17165439 -0.30809116 0  
0.30809116 0.17165439 0  
-0.17165439 0.30809116 0  
-0.16592422 -0.10879113 0  
0.10700909 -0.1687818 0  
0.16864619 0.10664837 0  
-0.10664837 0.16864619 0  
-0.16784625 -0.38069874 0  
0.38069874 -0.16784625 0  
0.16784625 0.38069874 0  
-0.38069874 0.16784625 0  
-0.4563872 -0.05993889 0  
0.05993889 -0.4563872 0  
0.4563872 0.05993889 0  
-0.05993889 0.4563872 0  
0.31103167 -0.37412483 0  
0.37412483 0.31103167 0  
-0.31103167 0.37412483 0  
-0.37412483 -0.31103167 0  
-0.3909646 -0.012754724 0  
0.012754724 -0.3909646 0  
0.3909646 0.012754724 0  
-0.012754724 0.3909646 0  
0.44915667 -0.21679194 0  
0.21679194 0.44915667 0  
-0.44915667 0.21679194 0  
-0.21679194 -0.44915667 0  
0.045831423 0.12033131 0  
-0.12662303 0.045442794 0  
-0.3107799 -0.37355793 0  
0.37355793 -0.3107799 0  
0.3107799 0.37355793 0  
-0.37355793 0.3107799 0  
0.04152367 0.021693805 0  
-0.08040017 -0.2675595 0  
0.26794365 -0.08044455 0  
0.080500565 0.2680441 0  
-0.2680441 0.080500565 0  
-0.13753757 -0.45578164 0  
0.45578164 -0.13753757 0  
0.13753757 0.45578164 0  
-0.45578164 0.13753757 0  
-0.05507968 -0.12135967 0  
0.14172421 -0.09428923 0  
0.2571752 -0.19664502 0  
[...]
POINT_DATA 2173 
SCALARS T float 
LOOKUP_TABLE default 
1.6404080881006242e-19 
5.88670581531346e-19 
-1.3810125975968992e-18 
-2.7618041299625084e-19 
1.569486230375804e-18 
-1.7833693399583778e-18 
1.117845077083377e-17 
-3.3550074938003553e-18 
8.337708079905079e-18 
1.3845341278283717e-17 
8.089466926458287e-18 
-2.5491859839309174e-18 
-1.1968155986912154e-17 
2.010837037469978e-17 
-1.1553288014737955e-17 
5.547733311767037e-18 
5.042956624206634e-18 
-2.5185320778556816e-19 
6.014466768423124e-18 
-5.656784553123897e-18 
1.094455049684267e-18 
-3.3707349244007157e-18 
6.678065278580546e-18 
-4.709455684301097e-18 
2.6256488819788833e-18 
6.9064787617480305e-19 
-1.2344889734504417e-17 
-3.2922973836579945e-17 
3.0623551666345354e-17 
4.505444932608459e-19 
1.0157236572459035e-18 
3.100630881756461e-17 
-4.36321251374138e-17 
5.280645585040839e-17 
-5.134129420806102e-18 
9.713707695770701e-18 
-1.1536134885526354e-17 
-2.275526278208842e-17 
-2.9821880429628894e-17 
-2.603564868193027e-17 
-4.390515334403827e-18 
-1.4567678494698826e-17 
-1.6414862501473655e-17 
1.6895626917092055e-17 
1.465318801649761e-17 
1.0503458867455797e-17 
2.642278260032638e-17 
3.622832927757711e-17 
3.043457754165365e-17 
3.223835369534803e-17 
3.5863925928379095e-19 
3.429882060288041e-17 
-2.396903321307814e-18 
1.0563245227457262e-17 
2.525141454708033e-17 
-1.1668566579863145e-17 
6.210389039954171e-17 
-3.108294968528037e-17 
4.9248534007856743e-17 
-1.7611278218946624e-17 
-2.5170413170113088e-17 
9.143673312999069e-17 
9.462515464068123e-19 
-3.64726468737868e-17 
4.5593810878972206e-17 
-1.8656017374661286e-17 
1.8607606452877877e-16 
-5.803318529520667e-17 
1.1239677101852019e-17 
1.42905094495815e-16 
-1.7270443062083796e-16 
3.0809602523217827e-16 
-2.28257887243597e-16 
2.0127296375319066e-17 
-2.973912370593789e-16 
4.8700512423447725e-17 
-4.337136966073908e-17 
5.922672535420472e-17 
1.0936539525900361e-16 
-8.748761008726237e-17 
1.1346415599757044e-16 
1.1247651598917275e-16 
-9.534390926862823e-17 
-6.925742077017485e-17 
1.778255613703359e-16 
4.034512045190381e-18 
-3.9095669437028e-17 
-2.2228506888007035e-16 
-3.017732942144699e-16 
-3.9894825284428466e-16 
-5.683867270396295e-17 
5.875167741352901e-17 
5.916654207333221e-18 
-3.3980655211489524e-16 
-6.801296035565919e-17 
-1.0255224467396814e-15 
1.0706100990235575e-15 
-3.4554414999694724e-16 
9.803328097018352e-17 
1.726092727863359e-17 
5.115428106841064e-16 
-5.399755744844479e-16 
3.2803781452315513e-16 
-1.2110402638533878e-16 
-9.096327611914747e-17 
-3.5959155040890704e-16 
2.561564408893285e-16 
-4.317910199675508e-16 
1.7521253755323229e-16 
-1.2470488209453673e-16 
2.1142874456105489e-16 
-4.868805082392913e-16 
-4.885118178019212e-16 
-8.38347325924615e-16 
-2.073237315862994e-16 
-2.2619708989262966e-16 
-8.658623514395851e-18 
5.041608735492513e-18 
1.6939791538471868e-17 
9.794604777054395e-18 
4.768718724731469e-18 
-4.04297755222718e-18 
-4.429763311919479e-19 
-9.238894291345814e-18 
6.2810975848282925e-18 
7.105798993862608e-18 
3.8355800853511853e-17 
-7.273108291901038e-17 
1.765476468361214e-16 
-2.7494928030600126e-16 
1.780813015333488e-16 
-2.7472289852429236e-17 
1.6968662835763957e-17 
-2.053173718725278e-17 
3.180554097438454e-17 
5.857532524244249e-18 
4.318215976271548e-19 
3.2506274634793555e-19 
1.878174337878727e-18 
5.3987269830673296e-20 
3.2842325174464575e-19 
-5.005471312696587e-19 
7.011307331384099e-19 
-1.022391678357278e-18 
-4.439508751963097e-18 
6.723168829778979e-18 
-8.665332049784329e-19 
3.3619345280538947e-18 
2.0081983130831874e-18 
-4.178734969327548e-18 
4.718236858153993e-18 
-6.4283072909318876e-18 
-5.1532363553673616e-18 
-2.1295747234906685e-18 
3.24508323288753e-18 
-1.5922164869321177e-18 
-2.6352972941550504e-18 
-9.298128767753229e-18 
-5.369068977514775e-19 
-9.808264791740738e-19 
9.149290172981431e-6 
2.168683452688206e-6 
-1.597464487184821e-5 
-0.0006070404561504359 
0.407331468963066 
0.00487661324426025 
3.6714661043190208e-6 
7.158284364681076e-6 
0.0009341259440798181 
1.734362699351812e-5 
0.0002011063579178554 
-0.00010818694195978312 
1.8797535162614864e-7 
2.691015043455017e-5 
7.397880329555916e-6 
6.482541812060212e-5 
0.048543725473423664 
2.3986778834152028e-6 
-5.8172821950152436e-5 
3.778700928422216e-5 
0.017574611723854033 
-6.175144735718154e-6 
8.9563130899224e-5 
-0.0007023800222601135 
3.495888073145769e-6 
-5.336800345627018e-6 
0.00012183889452968975 
-4.3677840770874934e-5 
0.15654289515584724 
-4.873780945385702e-6 
2.2934045112905844e-5 
-0.0018433958594403538 
1.403932629253257e-5 
3.1432743994949056e-5 
-0.00040185303660150636 
0.0005517769421417906 
-3.197086331522725e-6 
-1.0075673367603277e-5 
-2.6718865305307053e-5 
-0.0006496479000190838 
-1.402906497827735e-6 
-1.7616529597067628e-5 
1.3700083596521999e-5 
-0.00012664093212295369 
0.050647360703679326 
-5.0691606575663995e-6 
4.7798329714364344e-5 
0.00021935302525384989 
0.322600139120888 
4.304261892706589e-6 
8.047410236229546e-6 
-8.113665634062359e-5 
7.504293471186159e-5 
4.04735118468204e-6 
-2.099182859206632e-5 
-0.0004925776304624382 
-1.4353419222776003e-6 
-1.3069276867271114e-5 
-0.0003439954273224446 
0.036961483622301915 
1.846273348878736e-6 
1.8543723347722493e-6 
9.070496199593375e-6 
-0.00011221215015092106 
0.055951639058850665 
0.002871458820381851 
-3.833443301589317e-6 
-7.04331627827065e-5 
0.0004260840445645009 
-3.3494710565165723e-6 
0.3991833351199457 
-7.5411727944896826e-6 
0.0007837522180122336 
6.081778168076086e-6 
4.127813480821374e-5 
2.8924228680636093e-5 
4.111354373676904e-6 
-1.9242725049124973e-6 
-0.0003358612637002769 
-0.000550717478701495 
-5.300525341591815e-6 
0.006729723042416035 
-3.506461388561343e-6 
4.2066698716902614e-5 
0.0010190067276396372 
4.3245633265880274e-6 
7.650162313591874e-5 
-0.0006889076619571498 
-3.6434286307231494e-5 
-6.472827836275794e-6 
0.00012816327503592216 
-0.0009297101927716302 
9.633564558822222e-7 
-2.9558199968622973e-5 
3.0897833304829476e-6 
-3.9580606176492435e-5 
0.0005787824617973046 
-3.0234572013951016e-5 
0.021407402246200267 
-1.096260861930216e-6 
-7.208117852526586e-5 
-0.000511773937350981 
4.4158359790754176e-5 
-0.0007096614898980828 
5.298420240194117e-5 
-1.9979175262103532e-6 
3.4078427153554424e-6 
0.005791996375928915 
3.5405764873554003e-5 
2.2605225323597868e-6 
0.0007731381837975531 
0.1572830150169097 
-4.133132520333491e-6 
0.09367945298606861 
2.5877724252706167e-6 
9.687490187386028e-5 
-0.0009466489281513847 
-6.277298321775173e-6 
1.3147761951411437e-6 
-2.9850035484403614e-5 
-0.00022412736600109588 
0.1047125452241392 
-2.234453721456987e-6 
3.959311003321388e-5 
-0.00043184068040297513 
-9.690329482751057e-6 
-0.0002803112108586581 
0.12102455536099803 
0.00019093591853804672 
5.693617389337721e-7 
-8.468401512350873e-5 
0.001524992259555765 
1.3509647786681425e-6 
-3.3967606393812146e-5 
2.3815064965083326e-5 
0.008948131304560802 
1.4445725976832053e-6 
-2.321173122951835e-5 
-0.00014202176457026437 
0.0003192221986019386 
-2.321077938547811e-6 
3.078915895036573e-6 
0.0004698120425321479 
0.33274022265796344 
2.3073076604952324e-6 
-8.300400168717098e-7 
-3.761694262283918e-6 
-1.1799973532979563e-5 
-0.00014935997125969534 
2.1736794808832975e-6 
8.040443774849604e-6 
-3.361085690857347e-5 
1.0679681673471241e-5 
-2.4874280413582395e-6 
7.522132826842006e-6 
5.054150190743518e-6 
0.00018436600909405338 
2.6962199901881388e-5 
-0.00021004131182000182 
-0.0005394501865380592 
-1.4387350637136446e-6 
4.599578595026971e-6 
-3.967041477730277e-5 
-0.00021114033363367615 
0.0015617750374683798 
3.669311373408472e-6 
2.386673679475083e-5 
5.000272241807134e-5 
-1.3474945963285512e-5 
-3.966992235989204e-7 
-1.7290026786423586e-5 
-0.00013138758475780628 
0.001626593452205575 
0.0041236968989404165 
-1.73132914083474e-5 
0.0013994905385094532 
5.988442012326315e-5 
8.253515676153541e-6 
-0.0002325077020933144 
0.04473330962424132 
0.0010691287490409247 
-6.659964930945638e-7 
-5.510362453783309e-5 
0.011203577708735233 
3.298645296462224e-5 
-0.0002984304137586144 
1.722834000192154e-5 
-2.4508566664816325e-6 
5.609673825437138e-7 
2.4675852046330335e-5 
-0.00026894104154524096 
-8.213278323632292e-5 
-4.978843380156868e-6 
-7.486867018762953e-5 
0.007661264454948511 
-5.92534556920996e-6 
-2.1855087082251277e-6 
6.55651482262514e-5 
0.0006960975423046532 
0.450352316035049 
-4.081633764895566e-7 
-0.00010719132736044632 
0.00046571443563328687 
0.0020491432452680487 
-1.9947467499739276e-5 
0.0004861952608618324 
0.13861425767725974 
-5.967802598221785e-7 
-3.96044610788197e-6 
-2.1114321796909936e-6 
-6.0936099001528256e-5 
-7.895704565588274e-5 
-3.7222849428500667e-6 
-0.00021985442313747968 
-2.3083211439811874e-6 
2.3030522307922652e-6 
4.8542509580526556e-5 
-3.7866209246168174e-6 
-1.872484637873361e-5 
0.0001594413494289575 
0.5536649347410013 
3.658739350954508e-6 
-4.0409486369008475e-5 
-9.050111720648552e-5 
0.004487782475147825 
-1.0900636045945605e-5 
9.893558934747896e-6 
-0.0009733515021561475 
8.074745754836794e-7 
3.422498558041231e-6 
-6.474685088791624e-5 
-0.0011575554983133522 
0.10443386156830481 
3.6685385758138844e-5 
-1.1635503799612452e-5 
0.0005331331206167603 
-1.6041095744435226e-7 
-1.772624189608355e-6 
-0.0001947877720231032 
0.017933140154196125 
-8.305929187237596e-6 
3.221123851563012e-5 
2.735781456964982e-5 
0.19442551832812469 
5.139979618534189e-6 
-8.35869312514011e-6 
-0.0005952492889702912 
0.0022046588536167437 
1.1012389180566152e-7 
-1.0060710944187136e-5 
-7.194071826398397e-7 
0.00034369691619429957 
-3.338649344919957e-6 
-0.0002109085979265284 
-0.0004007490082559948 
-4.112049034419963e-6 
-5.4692789519482734e-5 
1.940304634795918e-6 
-3.118709324997547e-5 
0.0006774065378682266 
2.0632646438085927e-5 
-0.00027173875026280733 
4.496776504565715e-5 
9.19273038182201e-6 
6.483003635580853e-5 
0.041833724984378456 
4.179365965292812e-6 
9.175195778837758e-6 
-0.00016504363053194797 
-0.00010160227511674085 
0.00015958830260813774 
-5.435820465665714e-6 
-6.476088957701311e-5 
-0.00011731507177898708 
0.11694020648511291 
1.880761506939266e-6 
6.346619913570904e-6 
-0.001014768996311128 
-6.958204461957511e-6 
-6.4284133633089235e-6 
1.2895414077064196e-6 
-2.022339892751879e-5 
-0.00038421565781386814 
0.24941712244771966 
-1.0763791654352948e-6 
4.086316053503903e-5 
1.8370038056155605e-6 
2.6277840214018956e-6 
-3.679078757492411e-6 
-0.00010931961371271436 
-9.931707941208566e-5 
1.6807982212633608e-5 
-3.508084699218443e-5 
-2.980817226418519e-5 
-9.514961165769933e-6 
3.2508726512633926e-6 
2.987406294643385e-5 
9.985486954490821e-5 
3.97124843616163e-6 
-0.00019719889218995472 
0.007466630262327277 
-1.1835575644695522e-5 
2.805901203385356e-6 
-9.683286413887875e-5 
0.007517278217272498 
0.0006094616746322174 
6.697390283288515e-5 
9.864148851385616e-6 
-4.2508589425856034e-7 
6.56787096130038e-5 
-0.0007491155695600513 
0.048101796130596945 
0.0179154870314036 
-5.1001604037086645e-6 
-0.00023196422915651183 
0.002149296386009027 
-3.1088941466324987e-6 
-1.103855233860602e-5 
6.1708668219556e-5 
-0.00045015575142937726 
-3.901148635521574e-5 
-1.495286164437521e-5 
-9.45313970677543e-7 
-9.656146205225115e-5 
-0.0016574324738164864 
-1.0858221265828358e-6 
-3.7075589314315333e-6 
6.836552915948095e-6 
-0.0002275807618026175 
-6.835938032144731e-5 
5.83579457176688e-6 
0.002787033043565287 
-5.684839217559364e-7 
-2.57623562857629e-5 
0.0006317945358816142 
-2.1109494468056647e-6 
-7.856377310089607e-5 
-0.00029383073596023375 
-4.596560152746374e-6 
-8.507212934250188e-6 
4.609726715695676e-5 
-0.0009859943191826896 
-4.71074352189398e-5 
-3.5700879976771176e-6 
-4.22179670294876e-6 
-0.00010380565428820002 
-0.0010594698167169566 
-1.502977088995504e-6 
0.5604711009388671 
-2.1919803886397846e-5 
1.759959286215239e-5 
3.775988810005873e-6 
-0.00012092393704858171 
-2.0159991158203158e-5 
-2.5388205262608432e-6 
2.6269538659704688e-6 
-3.507251951573823e-5 
-0.00019549919555260505 
0.0023960213899511494 
-3.2928545551260854e-6 
-8.803429257139672e-5 
0.0005255458663019169 
-1.6900852031387708e-6 
-8.510304740271676e-7 
-2.9297303897504967e-6 
0.00011084867948638585 
0.00010904798145834861 
-1.5479259750244832e-6 
-3.590495481671787e-5 
1.20426386689726e-5 
-3.4798699639427e-6 
2.8347969852152793e-6 
-1.1777311801742661e-5 
1.7575546571851273e-5 
-3.89696860411976e-6 
0.021745338559824856 
-1.8526173253612736e-6 
-9.483168216995578e-5 
-0.0004695970563165815 
0.0008254846977092911 
0.0002413401857968032 
0.011496090648880906 
0.0003332873763230756 
0.2551871884981954 
0.00011727292899397548 
-7.793469414705326e-6 
-7.980952424284024e-5 
0.0038627823108400437 
-1.688176326386394e-5 
-4.937889477606734e-7 
7.76589273607563e-5 
-0.0005403874472550023 
-0.00010334842035821304 
1.7910746982035287e-6 
-9.235367988965418e-6 
-0.0007652213568455737 
0.19246567774166637 
4.637567671989209e-6 
0.0004605534751510078 
3.8092331741723685e-5 
3.971774691548157e-6 
0.0006941193638600783 
-1.430998552028378e-5 
2.909818942761704e-5 
0.00023967658941312933 
0.14924901944987987 
-2.890881749265977e-6 
-5.7277932767978166e-5 
-0.000314369493684285 
1.3432287461154283e-7 
-1.526517846113913e-5 
0.0005631600089781767 
0.3411921400345224 
-2.1454834963958197e-6 
-8.326172671200413e-5 
0.03802339500678485 
-3.324646745219873e-6 
0.00021161152883538206 
0.020106020820553946 
-1.1895144416930891e-6 
0.0200626929785167 
4.682866159431072e-6 
-6.006413081824959e-5 
0.0010018595219954646 
3.284933586395461e-6 
-1.2855754540819595e-5 
0.00021242235785900708 
0.004642444333768945 
-1.2212146085252018e-6 
7.817409654062718e-5 
-0.001987196055809344 
0.24549920032258818 
-6.955632833696096e-5 
-0.0004414944776024659 
0.004277051417930319 
-1.5528707238813494e-6 
5.3707064760605276e-6 
-3.741571801821812e-5 
0.0004844060277749532 
0.0003070487855824748 
3.854626826515756e-7 
-5.130963457738161e-6 
0.00035386779986614126 
0.0435589924735675 
1.009939656288291e-6 
-4.126313549806295e-8 
-8.272779932181444e-5 
0.050044881941199326 
0.0002280022242064603 
0.15981268509861274 
1.2152628687566995e-5 
-2.503086127123378e-5 
0.0003910004511864455 
3.0912388159707692e-6 
-3.186645701023883e-6 
5.8875288706250145e-6 
-0.0001188597266787662 
-1.0513540092076886e-6 
-3.04522496869399e-7 
-1.4388767302768891e-6 
0.00018302267319147495 
0.08730621433928357 
0.03304643927552582 
9.465613801199344e-5 
0.0022660543743358926 
0.013400019859071178 
-2.3230620946345245e-5 
6.112106754742588e-6 
-0.00011057540375753704 
0.00017341742005594344 
-1.5368992689499503e-5 
-7.769844806483591e-6 
5.158649328458069e-6 
9.109651398258244e-6 
-8.59621027711724e-5 
-0.00019645050552543556 
-1.0292660223424936e-5 
7.617611062624659e-5 
0.301803813118937 
-1.244622306169198e-6 
6.371814797108383e-8 
-0.0001417794897672185 
0.00026805729983859296 
-3.031108054781874e-5 
1.6990144726253324e-7 
1.3605120683340843e-6 
-1.084664489791186e-6 
3.363465851648212e-5 
-3.546734041805348e-5 
-1.383152495645782e-5 
0.00011407986578369486 
-0.0002707750603911672 
-0.00039933372212793035 
0.5915468117545091 
0.5357940997154311 
0.5684170352815916 
-3.978945662858571e-6 
-9.271787261579249e-7 
-1.773914332916008e-7 
-9.726025985333172e-5 
-1.4204211803600617e-5 
-2.2024964174454304e-5 
-0.00014305442062205418 
0.0024387717414088204 
-0.0006182712107246944 
0.07196833070973947 
0.09316433842757964 
0.13306974020178788 
-6.919002453895651e-7 
3.948826822436429e-6 
0.5202473551302597 
0.47014365838683075 
2.789178662246601e-5 
-1.3313126155774633e-5 
0.00098875141102323 
-0.0010596659327053088 
0.16054165418064217 
0.21454333396995176 
9.832916366352276e-7 
1.766387614618599e-6 
-8.932641870904632e-5 
-5.01789535542713e-5 
0.0014223743271924568 
0.0010009944543783993 
0.00022368145843342045 
0.00010720289904439273 
0.00010165702626988651 
-6.62913410911191e-6 
-8.975596616983412e-6 
-1.709533437507557e-5 
-2.669151976908856e-6 
1.1547273637777789e-6 
7.891139138376447e-6 
-1.1427743079526494e-6 
-8.890456178077149e-7 
6.403032642926445e-6 
3.15590486446557e-5 
-4.318524630433436e-5 
-0.00017838235216447774 
-0.00028101406688875333 
0.0006066874763252366 
-0.00022363404515572243 
-0.00010799171378230021 
0.00023344560182690636 
-1.8229853949654002e-6 
2.0527656155719344e-6 
4.411831581813943e-6 
1.7231146280746113e-5 
0.00010000180641431145 
-7.404268742510557e-5 
1.793534974427072e-5 
-2.8321943950920766e-6 
1.2244692737517448e-5 
-2.0959528115460626e-6 
1.2779073645912455e-5 
1.494180531885864e-5 
-2.4363248999934482e-5 
8.828931677599469e-6 
-1.951959921564577e-7 
4.637737092643613e-6 
0.011113817884744177 
0.0032731224739084575 
0.001650484315754755 
-4.486561142990779e-7 
3.137696941510309e-6 
-5.552333504275109e-7 
2.076388109729197e-5 
1.1904514490073217e-5 
-6.446588418573076e-6 
-2.0791134244457813e-5 
0.0011918431896279559 
-0.0011716718420891937 
2.2606092923430056e-5 
1.7271727980765226e-5 
3.88970547461076e-6 
-3.183385098445412e-5 
0.0001870179992880445 
-0.00019885207486793166 
-0.0001170404630023292 
-1.9998229228257822e-5 
8.078362981197421e-5 
-4.809782503507811e-6 
9.057377415578248e-6 
-8.356296541976479e-7 
-2.7858085437636835e-6 
-1.5091331026112214e-5 
-2.157578642237694e-6 
0.00014200180824523707 
-5.9334926012602676e-6 
1.5472522393412016e-5 
0.0003551165947742462 
-0.00011279353956753154 
0.00027051542300845566 
2.7744319786433963e-6 
-3.3291025732472633e-6 
2.7754797741853584e-6 
9.254536547574948e-6 
4.6363970922708526e-6 
4.4572622832709547e-5 
0.00010060442203706537 
-2.1049785275880147e-5 
7.337407049833823e-5 
0.00022370325190866887 
-1.7357294975414066e-6 
3.964205566028275e-6 
1.7857650741923704e-5 
-2.496439328178606e-5 
-0.00014250565597064617 
-0.0002569515127593155 
-0.00010771248544555475 
-6.598983896909861e-7 
1.7038455521337113e-6 
0.003940173944658011 
0.0007237296354072712 
0.0005836779464931784 
-5.374210646332427e-8 
4.66302950741491e-6 
1.4207255033296508e-5 
-9.92847948708878e-6 
-8.08302424788713e-5 
0.00017787719796216568 
0.00015424234436936667 
7.016785931954325e-5 
-5.418793429876919e-6 
2.4707940426618947e-6 
9.468092184272948e-6 
-3.359617866113957e-6 
-0.00012870539201921102 
9.779918676677573e-5 
2.269096371138994e-5 
-1.7345458685921968e-6 
0.008631977739742357 
0.0011339625190323725 
3.5995797521799975e-6 
-2.0103537907591716e-6 
-3.838261715318277e-5 
0.00010294349912223271 
0.00023215274116284313 
-0.0020388392606621205 
-9.693899522399665e-7 
-1.961535642154513e-6 
1.4694444663803125e-6 
-1.762476973575414e-5 
-1.5867845870308827e-5 
2.0107457830454892e-5 
-0.00016369419935308396 
-5.672041207674287e-5 
0.00027145860475876144 
-0.0005533254976094295 
4.249816058131022e-5 
0.0013023714682000626 
5.123565513038251e-5 
0.0001153748938633684 
-4.496055230394872e-6 
3.628546408808795e-6 
3.0106456107569732e-5 
1.907743702267503e-5 
-0.0006346366621812786 
0.00021550318192788435 
-2.3030054157184476e-5 
-6.609140457005194e-5 
-4.3155020332172e-6 
6.51087176763157e-6 
5.096971124739585e-6 
-0.00013058326404396904 
0.00010416755661747761 
-7.703808844193847e-5 
0.0002787562934588662 
0.0002492927017265896 
0.000352945624956462 
-1.1333800728231785e-6 
1.3309643555022226e-6 
2.0251152191900235e-6 
-5.260223971892934e-6 
-1.4715230781707488e-5 
-4.028566250921952e-6 
-9.106185300513697e-5 
1.550971610655451e-5 
-0.0003044053655082697 
0.0003123013403368733 
5.454578362303811e-5 
0.0003370566277923298 
-2.114351918817114e-6 
1.407592584168831e-6 
3.355857575431402e-6 
1.8662901478126995e-8 
1.5274837338085157e-7 
-2.545767338728613e-6 
1.1216066391080265e-5 
-0.00015246625421498568 
0.0001623992123428176 
-2.297936316750155e-5 
0.0006542290870754861 
-7.3288189318067e-6 
-1.679488432319297e-5 
-4.546807706040174e-6 
4.184617393520071e-5 
-1.7230778061707737e-5 
-1.7970228002769766e-6 
1.2577725383907793e-5 
7.774943998333491e-5 
0.0003797865051617754 
-0.00011054623999782067 